LAMMPS (3 Mar 2020)
# Input file for LAMMPS 2 hexagonal rigid bodies
# Author: Shanil Panara
# Date: 13/01/2022
# Notes:
#   use of MOLECULE package for binding particles in a rigid body
#   NVT simulation

##################################### SETUP #####################################
# ------------------------------- INITIALISATION --------------------------------
units       lj                                  # could also be: real, metal, si
dimension   3                                   # create box
boundary    p p p                               # all three boundaries are non-periodic
atom_style  full                                # can be used for CG or molecular bodies

# --------------------------------- VARIABLES -----------------------------------
# System Parameters
variable sigma   equal 1.0                      # sigma in lj potential
variable epsilon equal 1.0                      # sigma in lj potential
variable cut     equal 2.5                      # cutoff in lj potential (lj distance units)
variable temp    equal 2.25                      # temperature (lj temperature units)
variable K       equal 2/v_temp/7.0/7.0         # spring constant (force/distance units)
variable r0      equal 0                       # equilibrium distance (lj distance units)
variable seed    equal 5                        # random seed value
variable name    string "NVE-temp-${temp}_K-${K}_r-${r0}_s-${seed}"
NVE-temp-2.25_K-${K}_r-${r0}_s-${seed}
NVE-temp-2.25_K-0.018140589569161_r-${r0}_s-${seed}
NVE-temp-2.25_K-0.018140589569161_r-0_s-${seed}
NVE-temp-2.25_K-0.018140589569161_r-0_s-5

# Output File Names
variable traj       string  "${name}-traj.dump"
NVE-temp-2.25_K-0.018140589569161_r-0_s-5-traj.dump
variable rb_info    string  "${name}-info.dat"
NVE-temp-2.25_K-0.018140589569161_r-0_s-5-info.dat
variable sim_log    string  "${name}-sim.log"
NVE-temp-2.25_K-0.018140589569161_r-0_s-5-sim.log
variable input_log  string  "${name}-input.log"
NVE-temp-2.25_K-0.018140589569161_r-0_s-5-input.log

log ${input_log}                                # start a new log file to log input parameters/lammps response
log NVE-temp-2.25_K-0.018140589569161_r-0_s-5-input.log                                
