ITEM: TIMESTEP
0
ITEM: NUMBER OF ENTRIES
1
ITEM: BOX BOUNDS pp pp pp
-25 25
-25 25
-25 25
ITEM: ENTRIES c_com_1[1] c_com_1[2] c_com_1[3] c_vel_1[1] c_vel_1[2] c_vel_1[3] c_q_1[1] c_q_1[2] c_q_1[3] c_q_1[4] c_av_1[1] c_av_1[2] c_av_1[3] c_am_1[1] c_am_1[2] c_am_1[3] c_i_1[1] c_i_1[2] c_i_1[3] c_f_1[1] c_f_1[2] c_f_1[3] c_t_1[1] c_t_1[2] c_t_1[3] 
0 0 0 6.34413e-17 -3.17207e-17 1.42743e-16 0 0 0 1 0.627492 0.329341 -0.934823 1.88248 0.988024 -5.60894 3 3 6 0 0 0 0 0 0 
ITEM: TIMESTEP
1000
ITEM: NUMBER OF ENTRIES
1
ITEM: BOX BOUNDS pp pp pp
-25 25
-25 25
-25 25
ITEM: ENTRIES c_com_1[1] c_com_1[2] c_com_1[3] c_vel_1[1] c_vel_1[2] c_vel_1[3] c_q_1[1] c_q_1[2] c_q_1[3] c_q_1[4] c_av_1[1] c_av_1[2] c_av_1[3] c_am_1[1] c_am_1[2] c_am_1[3] c_i_1[1] c_i_1[2] c_i_1[3] c_f_1[1] c_f_1[2] c_f_1[3] c_t_1[1] c_t_1[2] c_t_1[3] 
6.34413e-19 -3.17207e-19 1.42743e-18 6.34413e-17 -3.17207e-17 1.42743e-16 0.00314507 0.001632 -0.00467411 0.999983 0.630515 0.323447 -0.934847 1.88248 0.988024 -5.60894 3 3 6 0 0 0 0 0 0 
ITEM: TIMESTEP
2000
ITEM: NUMBER OF ENTRIES
1
ITEM: BOX BOUNDS pp pp pp
-25 25
-25 25
-25 25
ITEM: ENTRIES c_com_1[1] c_com_1[2] c_com_1[3] c_vel_1[1] c_vel_1[2] c_vel_1[3] c_q_1[1] c_q_1[2] c_q_1[3] c_q_1[4] c_av_1[1] c_av_1[2] c_av_1[3] c_am_1[1] c_am_1[2] c_am_1[3] c_i_1[1] c_i_1[2] c_i_1[3] c_f_1[1] c_f_1[2] c_f_1[3] c_t_1[1] c_t_1[2] c_t_1[3] 
1.26883e-18 -6.34413e-19 2.85486e-18 6.34413e-17 -3.17207e-17 1.42743e-16 0.00630501 0.0032344 -0.00934817 0.999931 0.633428 0.317497 -0.934917 1.88248 0.988024 -5.60894 3 3 6 0 0 0 0 0 0 
ITEM: TIMESTEP
3000
ITEM: NUMBER OF ENTRIES
1
ITEM: BOX BOUNDS pp pp pp
-25 25
-25 25
-25 25
ITEM: ENTRIES c_com_1[1] c_com_1[2] c_com_1[3] c_vel_1[1] c_vel_1[2] c_vel_1[3] c_q_1[1] c_q_1[2] c_q_1[3] c_q_1[4] c_av_1[1] c_av_1[2] c_av_1[3] c_am_1[1] c_am_1[2] c_am_1[3] c_i_1[1] c_i_1[2] c_i_1[3] c_f_1[1] c_f_1[2] c_f_1[3] c_t_1[1] c_t_1[2] c_t_1[3] 
1.90324e-18 -9.5162e-19 4.28229e-18 6.34413e-17 -3.17207e-17 1.42743e-16 0.0094793 0.00480693 -0.0140222 0.999845 0.636229 0.311495 -0.935034 1.88248 0.988024 -5.60894 3 3 6 0 0 0 0 0 0 
ITEM: TIMESTEP
4000
ITEM: NUMBER OF ENTRIES
1
ITEM: BOX BOUNDS pp pp pp
-25 25
-25 25
-25 25
ITEM: ENTRIES c_com_1[1] c_com_1[2] c_com_1[3] c_vel_1[1] c_vel_1[2] c_vel_1[3] c_q_1[1] c_q_1[2] c_q_1[3] c_q_1[4] c_av_1[1] c_av_1[2] c_av_1[3] c_am_1[1] c_am_1[2] c_am_1[3] c_i_1[1] c_i_1[2] c_i_1[3] c_f_1[1] c_f_1[2] c_f_1[3] c_t_1[1] c_t_1[2] c_t_1[3] 
2.53765e-18 -1.26883e-18 5.70972e-18 6.34413e-17 -3.17207e-17 1.42743e-16 0.0126674 0.00634936 -0.018696 0.999725 0.638917 0.305442 -0.935198 1.88248 0.988024 -5.60894 3 3 6 0 0 0 0 0 0 
ITEM: TIMESTEP
5000
ITEM: NUMBER OF ENTRIES
1
ITEM: BOX BOUNDS pp pp pp
-25 25
-25 25
-25 25
ITEM: ENTRIES c_com_1[1] c_com_1[2] c_com_1[3] c_vel_1[1] c_vel_1[2] c_vel_1[3] c_q_1[1] c_q_1[2] c_q_1[3] c_q_1[4] c_av_1[1] c_av_1[2] c_av_1[3] c_am_1[1] c_am_1[2] c_am_1[3] c_i_1[1] c_i_1[2] c_i_1[3] c_f_1[1] c_f_1[2] c_f_1[3] c_t_1[1] c_t_1[2] c_t_1[3] 
3.17207e-18 -1.58603e-18 7.13715e-18 6.34413e-17 -3.17207e-17 1.42743e-16 0.0158688 0.00786142 -0.0233697 0.99957 0.64149 0.299342 -0.935409 1.88248 0.988024 -5.60894 3 3 6 0 0 0 0 0 0 
ITEM: TIMESTEP
6000
ITEM: NUMBER OF ENTRIES
1
ITEM: BOX BOUNDS pp pp pp
-25 25
-25 25
-25 25
ITEM: ENTRIES c_com_1[1] c_com_1[2] c_com_1[3] c_vel_1[1] c_vel_1[2] c_vel_1[3] c_q_1[1] c_q_1[2] c_q_1[3] c_q_1[4] c_av_1[1] c_av_1[2] c_av_1[3] c_am_1[1] c_am_1[2] c_am_1[3] c_i_1[1] c_i_1[2] c_i_1[3] c_f_1[1] c_f_1[2] c_f_1[3] c_t_1[1] c_t_1[2] c_t_1[3] 
3.80648e-18 -1.90324e-18 8.56458e-18 6.34413e-17 -3.17207e-17 1.42743e-16 0.019083 0.00934288 -0.0280431 0.999381 0.643948 0.293195 -0.935667 1.88248 0.988024 -5.60894 3 3 6 0 0 0 0 0 0 
ITEM: TIMESTEP
7000
ITEM: NUMBER OF ENTRIES
1
ITEM: BOX BOUNDS pp pp pp
-25 25
-25 25
-25 25
ITEM: ENTRIES c_com_1[1] c_com_1[2] c_com_1[3] c_vel_1[1] c_vel_1[2] c_vel_1[3] c_q_1[1] c_q_1[2] c_q_1[3] c_q_1[4] c_av_1[1] c_av_1[2] c_av_1[3] c_am_1[1] c_am_1[2] c_am_1[3] c_i_1[1] c_i_1[2] c_i_1[3] c_f_1[1] c_f_1[2] c_f_1[3] c_t_1[1] c_t_1[2] c_t_1[3] 
4.44089e-18 -2.22045e-18 9.99201e-18 6.34413e-17 -3.17207e-17 1.42743e-16 0.0223093 0.0107935 -0.0327163 0.999157 0.64629 0.287006 -0.935971 1.88248 0.988024 -5.60894 3 3 6 0 0 0 0 0 0 
ITEM: TIMESTEP
8000
ITEM: NUMBER OF ENTRIES
1
ITEM: BOX BOUNDS pp pp pp
-25 25
-25 25
-25 25
ITEM: ENTRIES c_com_1[1] c_com_1[2] c_com_1[3] c_vel_1[1] c_vel_1[2] c_vel_1[3] c_q_1[1] c_q_1[2] c_q_1[3] c_q_1[4] c_av_1[1] c_av_1[2] c_av_1[3] c_am_1[1] c_am_1[2] c_am_1[3] c_i_1[1] c_i_1[2] c_i_1[3] c_f_1[1] c_f_1[2] c_f_1[3] c_t_1[1] c_t_1[2] c_t_1[3] 
5.07531e-18 -2.53765e-18 1.14194e-17 6.34413e-17 -3.17207e-17 1.42743e-16 0.0255474 0.0122131 -0.0373892 0.9989 0.648515 0.280776 -0.936322 1.88248 0.988024 -5.60894 3 3 6 0 0 0 0 0 0 
ITEM: TIMESTEP
9000
ITEM: NUMBER OF ENTRIES
1
ITEM: BOX BOUNDS pp pp pp
-25 25
-25 25
-25 25
ITEM: ENTRIES c_com_1[1] c_com_1[2] c_com_1[3] c_vel_1[1] c_vel_1[2] c_vel_1[3] c_q_1[1] c_q_1[2] c_q_1[3] c_q_1[4] c_av_1[1] c_av_1[2] c_av_1[3] c_am_1[1] c_am_1[2] c_am_1[3] c_i_1[1] c_i_1[2] c_i_1[3] c_f_1[1] c_f_1[2] c_f_1[3] c_t_1[1] c_t_1[2] c_t_1[3] 
5.70972e-18 -2.85486e-18 1.28469e-17 6.34413e-17 -3.17207e-17 1.42743e-16 0.0287965 0.0136014 -0.0420618 0.998607 0.650621 0.274507 -0.936719 1.88248 0.988024 -5.60894 3 3 6 0 0 0 0 0 0 
ITEM: TIMESTEP
10000
ITEM: NUMBER OF ENTRIES
1
ITEM: BOX BOUNDS pp pp pp
-25 25
-25 25
-25 25
ITEM: ENTRIES c_com_1[1] c_com_1[2] c_com_1[3] c_vel_1[1] c_vel_1[2] c_vel_1[3] c_q_1[1] c_q_1[2] c_q_1[3] c_q_1[4] c_av_1[1] c_av_1[2] c_av_1[3] c_am_1[1] c_am_1[2] c_am_1[3] c_i_1[1] c_i_1[2] c_i_1[3] c_f_1[1] c_f_1[2] c_f_1[3] c_t_1[1] c_t_1[2] c_t_1[3] 
6.34413e-18 -3.17207e-18 1.42743e-17 6.34413e-17 -3.17207e-17 1.42743e-16 0.0320563 0.0149582 -0.0467339 0.998281 0.652609 0.268203 -0.937163 1.88248 0.988024 -5.60894 3 3 6 0 0 0 0 0 0 
ITEM: TIMESTEP
11000
ITEM: NUMBER OF ENTRIES
1
ITEM: BOX BOUNDS pp pp pp
-25 25
-25 25
-25 25
ITEM: ENTRIES c_com_1[1] c_com_1[2] c_com_1[3] c_vel_1[1] c_vel_1[2] c_vel_1[3] c_q_1[1] c_q_1[2] c_q_1[3] c_q_1[4] c_av_1[1] c_av_1[2] c_av_1[3] c_am_1[1] c_am_1[2] c_am_1[3] c_i_1[1] c_i_1[2] c_i_1[3] c_f_1[1] c_f_1[2] c_f_1[3] c_t_1[1] c_t_1[2] c_t_1[3] 
6.97854e-18 -3.48927e-18 1.57017e-17 6.34413e-17 -3.17207e-17 1.42743e-16 0.0353261 0.0162833 -0.0514056 0.99792 0.654477 0.261866 -0.937652 1.88248 0.988024 -5.60894 3 3 6 0 0 0 0 0 0 
ITEM: TIMESTEP
12000
ITEM: NUMBER OF ENTRIES
1
ITEM: BOX BOUNDS pp pp pp
-25 25
-25 25
-25 25
ITEM: ENTRIES c_com_1[1] c_com_1[2] c_com_1[3] c_vel_1[1] c_vel_1[2] c_vel_1[3] c_q_1[1] c_q_1[2] c_q_1[3] c_q_1[4] c_av_1[1] c_av_1[2] c_av_1[3] c_am_1[1] c_am_1[2] c_am_1[3] c_i_1[1] c_i_1[2] c_i_1[3] c_f_1[1] c_f_1[2] c_f_1[3] c_t_1[1] c_t_1[2] c_t_1[3] 
7.61296e-18 -3.80648e-18 1.71292e-17 6.34413e-17 -3.17207e-17 1.42743e-16 0.0386053 0.0175765 -0.0560768 0.997525 0.656225 0.255499 -0.938187 1.88248 0.988024 -5.60894 3 3 6 0 0 0 0 0 0 
ITEM: TIMESTEP
13000
ITEM: NUMBER OF ENTRIES
1
ITEM: BOX BOUNDS pp pp pp
-25 25
-25 25
-25 25
ITEM: ENTRIES c_com_1[1] c_com_1[2] c_com_1[3] c_vel_1[1] c_vel_1[2] c_vel_1[3] c_q_1[1] c_q_1[2] c_q_1[3] c_q_1[4] c_av_1[1] c_av_1[2] c_av_1[3] c_am_1[1] c_am_1[2] c_am_1[3] c_i_1[1] c_i_1[2] c_i_1[3] c_f_1[1] c_f_1[2] c_f_1[3] c_t_1[1] c_t_1[2] c_t_1[3] 
8.24737e-18 -4.12369e-18 1.85566e-17 6.34413e-17 -3.17207e-17 1.42743e-16 0.0418935 0.0188377 -0.0607475 0.997096 0.657851 0.249103 -0.938768 1.88248 0.988024 -5.60894 3 3 6 0 0 0 0 0 0 
ITEM: TIMESTEP
14000
ITEM: NUMBER OF ENTRIES
1
ITEM: BOX BOUNDS pp pp pp
-25 25
-25 25
-25 25
ITEM: ENTRIES c_com_1[1] c_com_1[2] c_com_1[3] c_vel_1[1] c_vel_1[2] c_vel_1[3] c_q_1[1] c_q_1[2] c_q_1[3] c_q_1[4] c_av_1[1] c_av_1[2] c_av_1[3] c_am_1[1] c_am_1[2] c_am_1[3] c_i_1[1] c_i_1[2] c_i_1[3] c_f_1[1] c_f_1[2] c_f_1[3] c_t_1[1] c_t_1[2] c_t_1[3] 
8.88178e-18 -4.44089e-18 1.9984e-17 6.34413e-17 -3.17207e-17 1.42743e-16 0.04519 0.0200666 -0.0654177 0.996632 0.659356 0.242682 -0.939394 1.88248 0.988024 -5.60894 3 3 6 0 0 0 0 0 0 
ITEM: TIMESTEP
15000
ITEM: NUMBER OF ENTRIES
1
ITEM: BOX BOUNDS pp pp pp
-25 25
-25 25
-25 25
ITEM: ENTRIES c_com_1[1] c_com_1[2] c_com_1[3] c_vel_1[1] c_vel_1[2] c_vel_1[3] c_q_1[1] c_q_1[2] c_q_1[3] c_q_1[4] c_av_1[1] c_av_1[2] c_av_1[3] c_am_1[1] c_am_1[2] c_am_1[3] c_i_1[1] c_i_1[2] c_i_1[3] c_f_1[1] c_f_1[2] c_f_1[3] c_t_1[1] c_t_1[2] c_t_1[3] 
9.5162e-18 -4.7581e-18 2.14114e-17 6.34413e-17 -3.17207e-17 1.42743e-16 0.0484944 0.0212631 -0.0700872 0.996135 0.660738 0.236238 -0.940065 1.88248 0.988024 -5.60894 3 3 6 0 0 0 0 0 0 
ITEM: TIMESTEP
16000
ITEM: NUMBER OF ENTRIES
1
ITEM: BOX BOUNDS pp pp pp
-25 25
-25 25
-25 25
ITEM: ENTRIES c_com_1[1] c_com_1[2] c_com_1[3] c_vel_1[1] c_vel_1[2] c_vel_1[3] c_q_1[1] c_q_1[2] c_q_1[3] c_q_1[4] c_av_1[1] c_av_1[2] c_av_1[3] c_am_1[1] c_am_1[2] c_am_1[3] c_i_1[1] c_i_1[2] c_i_1[3] c_f_1[1] c_f_1[2] c_f_1[3] c_t_1[1] c_t_1[2] c_t_1[3] 
1.01506e-17 -5.07531e-18 2.28389e-17 6.34413e-17 -3.17207e-17 1.42743e-16 0.051806 0.022427 -0.074756 0.995603 0.661997 0.229774 -0.940781 1.88248 0.988024 -5.60894 3 3 6 0 0 0 0 0 0 
ITEM: TIMESTEP
17000
ITEM: NUMBER OF ENTRIES
1
ITEM: BOX BOUNDS pp pp pp
-25 25
-25 25
-25 25
ITEM: ENTRIES c_com_1[1] c_com_1[2] c_com_1[3] c_vel_1[1] c_vel_1[2] c_vel_1[3] c_q_1[1] c_q_1[2] c_q_1[3] c_q_1[4] c_av_1[1] c_av_1[2] c_av_1[3] c_am_1[1] c_am_1[2] c_am_1[3] c_i_1[1] c_i_1[2] c_i_1[3] c_f_1[1] c_f_1[2] c_f_1[3] c_t_1[1] c_t_1[2] c_t_1[3] 
1.0785e-17 -5.39251e-18 2.42663e-17 6.34413e-17 -3.17207e-17 1.42743e-16 0.0551243 0.0235582 -0.0794242 0.995037 0.663133 0.223292 -0.941542 1.88248 0.988024 -5.60894 3 3 6 0 0 0 0 0 0 
ITEM: TIMESTEP
18000
ITEM: NUMBER OF ENTRIES
1
ITEM: BOX BOUNDS pp pp pp
-25 25
-25 25
-25 25
ITEM: ENTRIES c_com_1[1] c_com_1[2] c_com_1[3] c_vel_1[1] c_vel_1[2] c_vel_1[3] c_q_1[1] c_q_1[2] c_q_1[3] c_q_1[4] c_av_1[1] c_av_1[2] c_av_1[3] c_am_1[1] c_am_1[2] c_am_1[3] c_i_1[1] c_i_1[2] c_i_1[3] c_f_1[1] c_f_1[2] c_f_1[3] c_t_1[1] c_t_1[2] c_t_1[3] 
1.14194e-17 -5.70972e-18 2.56937e-17 6.34413e-17 -3.17207e-17 1.42743e-16 0.0584487 0.0246565 -0.0840916 0.994437 0.664145 0.216794 -0.942347 1.88248 0.988024 -5.60894 3 3 6 0 0 0 0 0 0 
ITEM: TIMESTEP
19000
ITEM: NUMBER OF ENTRIES
1
ITEM: BOX BOUNDS pp pp pp
-25 25
-25 25
-25 25
ITEM: ENTRIES c_com_1[1] c_com_1[2] c_com_1[3] c_vel_1[1] c_vel_1[2] c_vel_1[3] c_q_1[1] c_q_1[2] c_q_1[3] c_q_1[4] c_av_1[1] c_av_1[2] c_av_1[3] c_am_1[1] c_am_1[2] c_am_1[3] c_i_1[1] c_i_1[2] c_i_1[3] c_f_1[1] c_f_1[2] c_f_1[3] c_t_1[1] c_t_1[2] c_t_1[3] 
1.20538e-17 -6.02692e-18 2.71212e-17 6.34413e-17 -3.17207e-17 1.42743e-16 0.0617787 0.0257217 -0.0887582 0.993803 0.665032 0.210284 -0.943196 1.88248 0.988024 -5.60894 3 3 6 0 0 0 0 0 0 
ITEM: TIMESTEP
20000
ITEM: NUMBER OF ENTRIES
1
ITEM: BOX BOUNDS pp pp pp
-25 25
-25 25
-25 25
ITEM: ENTRIES c_com_1[1] c_com_1[2] c_com_1[3] c_vel_1[1] c_vel_1[2] c_vel_1[3] c_q_1[1] c_q_1[2] c_q_1[3] c_q_1[4] c_av_1[1] c_av_1[2] c_av_1[3] c_am_1[1] c_am_1[2] c_am_1[3] c_i_1[1] c_i_1[2] c_i_1[3] c_f_1[1] c_f_1[2] c_f_1[3] c_t_1[1] c_t_1[2] c_t_1[3] 
1.26883e-17 -6.34413e-18 2.85486e-17 6.34413e-17 -3.17207e-17 1.42743e-16 0.0651136 0.0267538 -0.0934239 0.993135 0.665795 0.203765 -0.944088 1.88248 0.988024 -5.60894 3 3 6 0 0 0 0 0 0 
ITEM: TIMESTEP
21000
ITEM: NUMBER OF ENTRIES
1
ITEM: BOX BOUNDS pp pp pp
-25 25
-25 25
-25 25
ITEM: ENTRIES c_com_1[1] c_com_1[2] c_com_1[3] c_vel_1[1] c_vel_1[2] c_vel_1[3] c_q_1[1] c_q_1[2] c_q_1[3] c_q_1[4] c_av_1[1] c_av_1[2] c_av_1[3] c_am_1[1] c_am_1[2] c_am_1[3] c_i_1[1] c_i_1[2] c_i_1[3] c_f_1[1] c_f_1[2] c_f_1[3] c_t_1[1] c_t_1[2] c_t_1[3] 
1.33227e-17 -6.66134e-18 2.9976e-17 6.34413e-17 -3.17207e-17 1.42743e-16 0.0684529 0.0277526 -0.0980888 0.992433 0.666433 0.197237 -0.945024 1.88248 0.988024 -5.60894 3 3 6 0 0 0 0 0 0 
ITEM: TIMESTEP
22000
ITEM: NUMBER OF ENTRIES
1
ITEM: BOX BOUNDS pp pp pp
-25 25
-25 25
-25 25
ITEM: ENTRIES c_com_1[1] c_com_1[2] c_com_1[3] c_vel_1[1] c_vel_1[2] c_vel_1[3] c_q_1[1] c_q_1[2] c_q_1[3] c_q_1[4] c_av_1[1] c_av_1[2] c_av_1[3] c_am_1[1] c_am_1[2] c_am_1[3] c_i_1[1] c_i_1[2] c_i_1[3] c_f_1[1] c_f_1[2] c_f_1[3] c_t_1[1] c_t_1[2] c_t_1[3] 
1.39571e-17 -6.97854e-18 3.14035e-17 6.34413e-17 -3.17207e-17 1.42743e-16 0.0717961 0.028718 -0.102753 0.991697 0.666946 0.190706 -0.946002 1.88248 0.988024 -5.60894 3 3 6 0 0 0 0 0 0 
ITEM: TIMESTEP
23000
ITEM: NUMBER OF ENTRIES
1
ITEM: BOX BOUNDS pp pp pp
-25 25
-25 25
-25 25
ITEM: ENTRIES c_com_1[1] c_com_1[2] c_com_1[3] c_vel_1[1] c_vel_1[2] c_vel_1[3] c_q_1[1] c_q_1[2] c_q_1[3] c_q_1[4] c_av_1[1] c_av_1[2] c_av_1[3] c_am_1[1] c_am_1[2] c_am_1[3] c_i_1[1] c_i_1[2] c_i_1[3] c_f_1[1] c_f_1[2] c_f_1[3] c_t_1[1] c_t_1[2] c_t_1[3] 
1.45915e-17 -7.29575e-18 3.28309e-17 6.34413e-17 -3.17207e-17 1.42743e-16 0.0751425 0.0296499 -0.107416 0.990927 0.667333 0.184171 -0.947024 1.88248 0.988024 -5.60894 3 3 6 0 0 0 0 0 0 
ITEM: TIMESTEP
24000
ITEM: NUMBER OF ENTRIES
1
ITEM: BOX BOUNDS pp pp pp
-25 25
-25 25
-25 25
ITEM: ENTRIES c_com_1[1] c_com_1[2] c_com_1[3] c_vel_1[1] c_vel_1[2] c_vel_1[3] c_q_1[1] c_q_1[2] c_q_1[3] c_q_1[4] c_av_1[1] c_av_1[2] c_av_1[3] c_am_1[1] c_am_1[2] c_am_1[3] c_i_1[1] c_i_1[2] c_i_1[3] c_f_1[1] c_f_1[2] c_f_1[3] c_t_1[1] c_t_1[2] c_t_1[3] 
1.52259e-17 -7.61296e-18 3.42583e-17 6.34413e-17 -3.17207e-17 1.42743e-16 0.0784916 0.0305482 -0.112078 0.990123 0.667594 0.177638 -0.948087 1.88248 0.988024 -5.60894 3 3 6 0 0 0 0 0 0 
ITEM: TIMESTEP
25000
ITEM: NUMBER OF ENTRIES
1
ITEM: BOX BOUNDS pp pp pp
-25 25
-25 25
-25 25
ITEM: ENTRIES c_com_1[1] c_com_1[2] c_com_1[3] c_vel_1[1] c_vel_1[2] c_vel_1[3] c_q_1[1] c_q_1[2] c_q_1[3] c_q_1[4] c_av_1[1] c_av_1[2] c_av_1[3] c_am_1[1] c_am_1[2] c_am_1[3] c_i_1[1] c_i_1[2] c_i_1[3] c_f_1[1] c_f_1[2] c_f_1[3] c_t_1[1] c_t_1[2] c_t_1[3] 
1.58603e-17 -7.93016e-18 3.56857e-17 6.34413e-17 -3.17207e-17 1.42743e-16 0.0818429 0.0314128 -0.116738 0.989286 0.66773 0.171107 -0.949191 1.88248 0.988024 -5.60894 3 3 6 0 0 0 0 0 0 
ITEM: TIMESTEP
26000
ITEM: NUMBER OF ENTRIES
1
ITEM: BOX BOUNDS pp pp pp
-25 25
-25 25
-25 25
ITEM: ENTRIES c_com_1[1] c_com_1[2] c_com_1[3] c_vel_1[1] c_vel_1[2] c_vel_1[3] c_q_1[1] c_q_1[2] c_q_1[3] c_q_1[4] c_av_1[1] c_av_1[2] c_av_1[3] c_am_1[1] c_am_1[2] c_am_1[3] c_i_1[1] c_i_1[2] c_i_1[3] c_f_1[1] c_f_1[2] c_f_1[3] c_t_1[1] c_t_1[2] c_t_1[3] 
1.64947e-17 -8.24737e-18 3.71132e-17 6.34413e-17 -3.17207e-17 1.42743e-16 0.0851956 0.0322436 -0.121398 0.988415 0.66774 0.164583 -0.950337 1.88248 0.988024 -5.60894 3 3 6 0 0 0 0 0 0 
ITEM: TIMESTEP
27000
ITEM: NUMBER OF ENTRIES
1
ITEM: BOX BOUNDS pp pp pp
-25 25
-25 25
-25 25
ITEM: ENTRIES c_com_1[1] c_com_1[2] c_com_1[3] c_vel_1[1] c_vel_1[2] c_vel_1[3] c_q_1[1] c_q_1[2] c_q_1[3] c_q_1[4] c_av_1[1] c_av_1[2] c_av_1[3] c_am_1[1] c_am_1[2] c_am_1[3] c_i_1[1] c_i_1[2] c_i_1[3] c_f_1[1] c_f_1[2] c_f_1[3] c_t_1[1] c_t_1[2] c_t_1[3] 
1.71292e-17 -8.56458e-18 3.85406e-17 6.34413e-17 -3.17207e-17 1.42743e-16 0.0885494 0.0330405 -0.126057 0.987511 0.667625 0.158066 -0.951524 1.88248 0.988024 -5.60894 3 3 6 0 0 0 0 0 0 
ITEM: TIMESTEP
28000
ITEM: NUMBER OF ENTRIES
1
ITEM: BOX BOUNDS pp pp pp
-25 25
-25 25
-25 25
ITEM: ENTRIES c_com_1[1] c_com_1[2] c_com_1[3] c_vel_1[1] c_vel_1[2] c_vel_1[3] c_q_1[1] c_q_1[2] c_q_1[3] c_q_1[4] c_av_1[1] c_av_1[2] c_av_1[3] c_am_1[1] c_am_1[2] c_am_1[3] c_i_1[1] c_i_1[2] c_i_1[3] c_f_1[1] c_f_1[2] c_f_1[3] c_t_1[1] c_t_1[2] c_t_1[3] 
1.77636e-17 -8.88178e-18 3.9968e-17 6.34413e-17 -3.17207e-17 1.42743e-16 0.0919034 0.0338035 -0.130714 0.986572 0.667384 0.15156 -0.952751 1.88248 0.988024 -5.60894 3 3 6 0 0 0 0 0 0 
ITEM: TIMESTEP
29000
ITEM: NUMBER OF ENTRIES
1
ITEM: BOX BOUNDS pp pp pp
-25 25
-25 25
-25 25
ITEM: ENTRIES c_com_1[1] c_com_1[2] c_com_1[3] c_vel_1[1] c_vel_1[2] c_vel_1[3] c_q_1[1] c_q_1[2] c_q_1[3] c_q_1[4] c_av_1[1] c_av_1[2] c_av_1[3] c_am_1[1] c_am_1[2] c_am_1[3] c_i_1[1] c_i_1[2] c_i_1[3] c_f_1[1] c_f_1[2] c_f_1[3] c_t_1[1] c_t_1[2] c_t_1[3] 
1.8398e-17 -9.19899e-18 4.13955e-17 6.34413e-17 -3.17207e-17 1.42743e-16 0.0952573 0.0345325 -0.13537 0.985601 0.667017 0.145068 -0.954018 1.88248 0.988024 -5.60894 3 3 6 0 0 0 0 0 0 
ITEM: TIMESTEP
30000
ITEM: NUMBER OF ENTRIES
1
ITEM: BOX BOUNDS pp pp pp
-25 25
-25 25
-25 25
ITEM: ENTRIES c_com_1[1] c_com_1[2] c_com_1[3] c_vel_1[1] c_vel_1[2] c_vel_1[3] c_q_1[1] c_q_1[2] c_q_1[3] c_q_1[4] c_av_1[1] c_av_1[2] c_av_1[3] c_am_1[1] c_am_1[2] c_am_1[3] c_i_1[1] c_i_1[2] c_i_1[3] c_f_1[1] c_f_1[2] c_f_1[3] c_t_1[1] c_t_1[2] c_t_1[3] 
1.90324e-17 -9.5162e-18 4.28229e-17 6.34413e-17 -3.17207e-17 1.42743e-16 0.0986104 0.0352274 -0.140024 0.984595 0.666524 0.138592 -0.955324 1.88248 0.988024 -5.60894 3 3 6 0 0 0 0 0 0 
ITEM: TIMESTEP
31000
ITEM: NUMBER OF ENTRIES
1
ITEM: BOX BOUNDS pp pp pp
-25 25
-25 25
-25 25
ITEM: ENTRIES c_com_1[1] c_com_1[2] c_com_1[3] c_vel_1[1] c_vel_1[2] c_vel_1[3] c_q_1[1] c_q_1[2] c_q_1[3] c_q_1[4] c_av_1[1] c_av_1[2] c_av_1[3] c_am_1[1] c_am_1[2] c_am_1[3] c_i_1[1] c_i_1[2] c_i_1[3] c_f_1[1] c_f_1[2] c_f_1[3] c_t_1[1] c_t_1[2] c_t_1[3] 
1.96668e-17 -9.8334e-18 4.42503e-17 6.34413e-17 -3.17207e-17 1.42743e-16 0.101962 0.0358883 -0.144678 0.983557 0.665906 0.132135 -0.956669 1.88248 0.988024 -5.60894 3 3 6 0 0 0 0 0 0 
ITEM: TIMESTEP
32000
ITEM: NUMBER OF ENTRIES
1
ITEM: BOX BOUNDS pp pp pp
-25 25
-25 25
-25 25
ITEM: ENTRIES c_com_1[1] c_com_1[2] c_com_1[3] c_vel_1[1] c_vel_1[2] c_vel_1[3] c_q_1[1] c_q_1[2] c_q_1[3] c_q_1[4] c_av_1[1] c_av_1[2] c_av_1[3] c_am_1[1] c_am_1[2] c_am_1[3] c_i_1[1] c_i_1[2] c_i_1[3] c_f_1[1] c_f_1[2] c_f_1[3] c_t_1[1] c_t_1[2] c_t_1[3] 
2.03012e-17 -1.01506e-17 4.56777e-17 6.34413e-17 -3.17207e-17 1.42743e-16 0.105312 0.036515 -0.14933 0.982485 0.665164 0.125699 -0.958052 1.88248 0.988024 -5.60894 3 3 6 0 0 0 0 0 0 
ITEM: TIMESTEP
33000
ITEM: NUMBER OF ENTRIES
1
ITEM: BOX BOUNDS pp pp pp
-25 25
-25 25
-25 25
ITEM: ENTRIES c_com_1[1] c_com_1[2] c_com_1[3] c_vel_1[1] c_vel_1[2] c_vel_1[3] c_q_1[1] c_q_1[2] c_q_1[3] c_q_1[4] c_av_1[1] c_av_1[2] c_av_1[3] c_am_1[1] c_am_1[2] c_am_1[3] c_i_1[1] c_i_1[2] c_i_1[3] c_f_1[1] c_f_1[2] c_f_1[3] c_t_1[1] c_t_1[2] c_t_1[3] 
2.09356e-17 -1.04678e-17 4.71052e-17 6.34413e-17 -3.17207e-17 1.42743e-16 0.108659 0.0371076 -0.15398 0.98138 0.664296 0.119287 -0.959472 1.88248 0.988024 -5.60894 3 3 6 0 0 0 0 0 0 
ITEM: TIMESTEP
34000
ITEM: NUMBER OF ENTRIES
1
ITEM: BOX BOUNDS pp pp pp
-25 25
-25 25
-25 25
ITEM: ENTRIES c_com_1[1] c_com_1[2] c_com_1[3] c_vel_1[1] c_vel_1[2] c_vel_1[3] c_q_1[1] c_q_1[2] c_q_1[3] c_q_1[4] c_av_1[1] c_av_1[2] c_av_1[3] c_am_1[1] c_am_1[2] c_am_1[3] c_i_1[1] c_i_1[2] c_i_1[3] c_f_1[1] c_f_1[2] c_f_1[3] c_t_1[1] c_t_1[2] c_t_1[3] 
2.157e-17 -1.0785e-17 4.85326e-17 6.34413e-17 -3.17207e-17 1.42743e-16 0.112003 0.037666 -0.158629 0.980242 0.663304 0.112901 -0.96093 1.88248 0.988024 -5.60894 3 3 6 0 0 0 0 0 0 
ITEM: TIMESTEP
35000
ITEM: NUMBER OF ENTRIES
1
ITEM: BOX BOUNDS pp pp pp
-25 25
-25 25
-25 25
ITEM: ENTRIES c_com_1[1] c_com_1[2] c_com_1[3] c_vel_1[1] c_vel_1[2] c_vel_1[3] c_q_1[1] c_q_1[2] c_q_1[3] c_q_1[4] c_av_1[1] c_av_1[2] c_av_1[3] c_am_1[1] c_am_1[2] c_am_1[3] c_i_1[1] c_i_1[2] c_i_1[3] c_f_1[1] c_f_1[2] c_f_1[3] c_t_1[1] c_t_1[2] c_t_1[3] 
2.22045e-17 -1.11022e-17 4.996e-17 6.34413e-17 -3.17207e-17 1.42743e-16 0.115344 0.0381902 -0.163276 0.97907 0.662189 0.106544 -0.962424 1.88248 0.988024 -5.60894 3 3 6 0 0 0 0 0 0 
ITEM: TIMESTEP
36000
ITEM: NUMBER OF ENTRIES
1
ITEM: BOX BOUNDS pp pp pp
-25 25
-25 25
-25 25
ITEM: ENTRIES c_com_1[1] c_com_1[2] c_com_1[3] c_vel_1[1] c_vel_1[2] c_vel_1[3] c_q_1[1] c_q_1[2] c_q_1[3] c_q_1[4] c_av_1[1] c_av_1[2] c_av_1[3] c_am_1[1] c_am_1[2] c_am_1[3] c_i_1[1] c_i_1[2] c_i_1[3] c_f_1[1] c_f_1[2] c_f_1[3] c_t_1[1] c_t_1[2] c_t_1[3] 
2.28389e-17 -1.14194e-17 5.13875e-17 6.34413e-17 -3.17207e-17 1.42743e-16 0.11868 0.0386803 -0.167921 0.977866 0.660949 0.100219 -0.963954 1.88248 0.988024 -5.60894 3 3 6 0 0 0 0 0 0 
ITEM: TIMESTEP
37000
ITEM: NUMBER OF ENTRIES
1
ITEM: BOX BOUNDS pp pp pp
-25 25
-25 25
-25 25
ITEM: ENTRIES c_com_1[1] c_com_1[2] c_com_1[3] c_vel_1[1] c_vel_1[2] c_vel_1[3] c_q_1[1] c_q_1[2] c_q_1[3] c_q_1[4] c_av_1[1] c_av_1[2] c_av_1[3] c_am_1[1] c_am_1[2] c_am_1[3] c_i_1[1] c_i_1[2] c_i_1[3] c_f_1[1] c_f_1[2] c_f_1[3] c_t_1[1] c_t_1[2] c_t_1[3] 
2.34733e-17 -1.17366e-17 5.28149e-17 6.34413e-17 -3.17207e-17 1.42743e-16 0.122011 0.0391361 -0.172565 0.976628 0.659587 0.0939278 -0.96552 1.88248 0.988024 -5.60894 3 3 6 0 0 0 0 0 0 
ITEM: TIMESTEP
38000
ITEM: NUMBER OF ENTRIES
1
ITEM: BOX BOUNDS pp pp pp
-25 25
-25 25
-25 25
ITEM: ENTRIES c_com_1[1] c_com_1[2] c_com_1[3] c_vel_1[1] c_vel_1[2] c_vel_1[3] c_q_1[1] c_q_1[2] c_q_1[3] c_q_1[4] c_av_1[1] c_av_1[2] c_av_1[3] c_am_1[1] c_am_1[2] c_am_1[3] c_i_1[1] c_i_1[2] c_i_1[3] c_f_1[1] c_f_1[2] c_f_1[3] c_t_1[1] c_t_1[2] c_t_1[3] 
2.41077e-17 -1.20538e-17 5.42423e-17 6.34413e-17 -3.17207e-17 1.42743e-16 0.125337 0.0395578 -0.177207 0.975358 0.658102 0.0876731 -0.96712 1.88248 0.988024 -5.60894 3 3 6 0 0 0 0 0 0 
ITEM: TIMESTEP
39000
ITEM: NUMBER OF ENTRIES
1
ITEM: BOX BOUNDS pp pp pp
-25 25
-25 25
-25 25
ITEM: ENTRIES c_com_1[1] c_com_1[2] c_com_1[3] c_vel_1[1] c_vel_1[2] c_vel_1[3] c_q_1[1] c_q_1[2] c_q_1[3] c_q_1[4] c_av_1[1] c_av_1[2] c_av_1[3] c_am_1[1] c_am_1[2] c_am_1[3] c_i_1[1] c_i_1[2] c_i_1[3] c_f_1[1] c_f_1[2] c_f_1[3] c_t_1[1] c_t_1[2] c_t_1[3] 
2.47421e-17 -1.23711e-17 5.56698e-17 6.34413e-17 -3.17207e-17 1.42743e-16 0.128657 0.0399453 -0.181848 0.974055 0.656495 0.0814575 -0.968754 1.88248 0.988024 -5.60894 3 3 6 0 0 0 0 0 0 
ITEM: TIMESTEP
40000
ITEM: NUMBER OF ENTRIES
1
ITEM: BOX BOUNDS pp pp pp
-25 25
-25 25
-25 25
ITEM: ENTRIES c_com_1[1] c_com_1[2] c_com_1[3] c_vel_1[1] c_vel_1[2] c_vel_1[3] c_q_1[1] c_q_1[2] c_q_1[3] c_q_1[4] c_av_1[1] c_av_1[2] c_av_1[3] c_am_1[1] c_am_1[2] c_am_1[3] c_i_1[1] c_i_1[2] c_i_1[3] c_f_1[1] c_f_1[2] c_f_1[3] c_t_1[1] c_t_1[2] c_t_1[3] 
2.53765e-17 -1.26883e-17 5.70972e-17 6.34413e-17 -3.17207e-17 1.42743e-16 0.131971 0.0402987 -0.186486 0.972719 0.654767 0.0752834 -0.970422 1.88248 0.988024 -5.60894 3 3 6 0 0 0 0 0 0 
ITEM: TIMESTEP
41000
ITEM: NUMBER OF ENTRIES
1
ITEM: BOX BOUNDS pp pp pp
-25 25
-25 25
-25 25
ITEM: ENTRIES c_com_1[1] c_com_1[2] c_com_1[3] c_vel_1[1] c_vel_1[2] c_vel_1[3] c_q_1[1] c_q_1[2] c_q_1[3] c_q_1[4] c_av_1[1] c_av_1[2] c_av_1[3] c_am_1[1] c_am_1[2] c_am_1[3] c_i_1[1] c_i_1[2] c_i_1[3] c_f_1[1] c_f_1[2] c_f_1[3] c_t_1[1] c_t_1[2] c_t_1[3] 
2.60109e-17 -1.30055e-17 5.85246e-17 6.34413e-17 -3.17207e-17 1.42743e-16 0.135277 0.040618 -0.191123 0.971351 0.652919 0.0691533 -0.972122 1.88248 0.988024 -5.60894 3 3 6 0 0 0 0 0 0 
ITEM: TIMESTEP
42000
ITEM: NUMBER OF ENTRIES
1
ITEM: BOX BOUNDS pp pp pp
-25 25
-25 25
-25 25
ITEM: ENTRIES c_com_1[1] c_com_1[2] c_com_1[3] c_vel_1[1] c_vel_1[2] c_vel_1[3] c_q_1[1] c_q_1[2] c_q_1[3] c_q_1[4] c_av_1[1] c_av_1[2] c_av_1[3] c_am_1[1] c_am_1[2] c_am_1[3] c_i_1[1] c_i_1[2] c_i_1[3] c_f_1[1] c_f_1[2] c_f_1[3] c_t_1[1] c_t_1[2] c_t_1[3] 
2.66454e-17 -1.33227e-17 5.9952e-17 6.34413e-17 -3.17207e-17 1.42743e-16 0.138575 0.0409032 -0.195757 0.96995 0.65095 0.0630696 -0.973854 1.88248 0.988024 -5.60894 3 3 6 0 0 0 0 0 0 
ITEM: TIMESTEP
43000
ITEM: NUMBER OF ENTRIES
1
ITEM: BOX BOUNDS pp pp pp
-25 25
-25 25
-25 25
ITEM: ENTRIES c_com_1[1] c_com_1[2] c_com_1[3] c_vel_1[1] c_vel_1[2] c_vel_1[3] c_q_1[1] c_q_1[2] c_q_1[3] c_q_1[4] c_av_1[1] c_av_1[2] c_av_1[3] c_am_1[1] c_am_1[2] c_am_1[3] c_i_1[1] c_i_1[2] c_i_1[3] c_f_1[1] c_f_1[2] c_f_1[3] c_t_1[1] c_t_1[2] c_t_1[3] 
2.72798e-17 -1.36399e-17 6.13795e-17 6.34413e-17 -3.17207e-17 1.42743e-16 0.141865 0.0411545 -0.20039 0.968517 0.648863 0.0570349 -0.975618 1.88248 0.988024 -5.60894 3 3 6 0 0 0 0 0 0 
ITEM: TIMESTEP
44000
ITEM: NUMBER OF ENTRIES
1
ITEM: BOX BOUNDS pp pp pp
-25 25
-25 25
-25 25
ITEM: ENTRIES c_com_1[1] c_com_1[2] c_com_1[3] c_vel_1[1] c_vel_1[2] c_vel_1[3] c_q_1[1] c_q_1[2] c_q_1[3] c_q_1[4] c_av_1[1] c_av_1[2] c_av_1[3] c_am_1[1] c_am_1[2] c_am_1[3] c_i_1[1] c_i_1[2] c_i_1[3] c_f_1[1] c_f_1[2] c_f_1[3] c_t_1[1] c_t_1[2] c_t_1[3] 
2.79142e-17 -1.39571e-17 6.28069e-17 6.34413e-17 -3.17207e-17 1.42743e-16 0.145147 0.0413718 -0.20502 0.967051 0.646657 0.0510514 -0.977412 1.88248 0.988024 -5.60894 3 3 6 0 0 0 0 0 0 
ITEM: TIMESTEP
45000
ITEM: NUMBER OF ENTRIES
1
ITEM: BOX BOUNDS pp pp pp
-25 25
-25 25
-25 25
ITEM: ENTRIES c_com_1[1] c_com_1[2] c_com_1[3] c_vel_1[1] c_vel_1[2] c_vel_1[3] c_q_1[1] c_q_1[2] c_q_1[3] c_q_1[4] c_av_1[1] c_av_1[2] c_av_1[3] c_am_1[1] c_am_1[2] c_am_1[3] c_i_1[1] c_i_1[2] c_i_1[3] c_f_1[1] c_f_1[2] c_f_1[3] c_t_1[1] c_t_1[2] c_t_1[3] 
2.85486e-17 -1.42743e-17 6.42343e-17 6.34413e-17 -3.17207e-17 1.42743e-16 0.148418 0.0415553 -0.209648 0.965553 0.644334 0.0451216 -0.979236 1.88248 0.988024 -5.60894 3 3 6 0 0 0 0 0 0 
ITEM: TIMESTEP
46000
ITEM: NUMBER OF ENTRIES
1
ITEM: BOX BOUNDS pp pp pp
-25 25
-25 25
-25 25
ITEM: ENTRIES c_com_1[1] c_com_1[2] c_com_1[3] c_vel_1[1] c_vel_1[2] c_vel_1[3] c_q_1[1] c_q_1[2] c_q_1[3] c_q_1[4] c_av_1[1] c_av_1[2] c_av_1[3] c_am_1[1] c_am_1[2] c_am_1[3] c_i_1[1] c_i_1[2] c_i_1[3] c_f_1[1] c_f_1[2] c_f_1[3] c_t_1[1] c_t_1[2] c_t_1[3] 
2.9183e-17 -1.45915e-17 6.56618e-17 6.34413e-17 -3.17207e-17 1.42743e-16 0.15168 0.041705 -0.214274 0.964023 0.641894 0.0392479 -0.98109 1.88248 0.988024 -5.60894 3 3 6 0 0 0 0 0 0 
ITEM: TIMESTEP
47000
ITEM: NUMBER OF ENTRIES
1
ITEM: BOX BOUNDS pp pp pp
-25 25
-25 25
-25 25
ITEM: ENTRIES c_com_1[1] c_com_1[2] c_com_1[3] c_vel_1[1] c_vel_1[2] c_vel_1[3] c_q_1[1] c_q_1[2] c_q_1[3] c_q_1[4] c_av_1[1] c_av_1[2] c_av_1[3] c_am_1[1] c_am_1[2] c_am_1[3] c_i_1[1] c_i_1[2] c_i_1[3] c_f_1[1] c_f_1[2] c_f_1[3] c_t_1[1] c_t_1[2] c_t_1[3] 
2.98174e-17 -1.49087e-17 6.70892e-17 6.34413e-17 -3.17207e-17 1.42743e-16 0.154931 0.041821 -0.218898 0.962461 0.639339 0.0334326 -0.982972 1.88248 0.988024 -5.60894 3 3 6 0 0 0 0 0 0 
ITEM: TIMESTEP
48000
ITEM: NUMBER OF ENTRIES
1
ITEM: BOX BOUNDS pp pp pp
-25 25
-25 25
-25 25
ITEM: ENTRIES c_com_1[1] c_com_1[2] c_com_1[3] c_vel_1[1] c_vel_1[2] c_vel_1[3] c_q_1[1] c_q_1[2] c_q_1[3] c_q_1[4] c_av_1[1] c_av_1[2] c_av_1[3] c_am_1[1] c_am_1[2] c_am_1[3] c_i_1[1] c_i_1[2] c_i_1[3] c_f_1[1] c_f_1[2] c_f_1[3] c_t_1[1] c_t_1[2] c_t_1[3] 
3.04518e-17 -1.52259e-17 6.85166e-17 6.34413e-17 -3.17207e-17 1.42743e-16 0.158171 0.0419034 -0.223519 0.960867 0.63667 0.027678 -0.984881 1.88248 0.988024 -5.60894 3 3 6 0 0 0 0 0 0 
ITEM: TIMESTEP
49000
ITEM: NUMBER OF ENTRIES
1
ITEM: BOX BOUNDS pp pp pp
-25 25
-25 25
-25 25
ITEM: ENTRIES c_com_1[1] c_com_1[2] c_com_1[3] c_vel_1[1] c_vel_1[2] c_vel_1[3] c_q_1[1] c_q_1[2] c_q_1[3] c_q_1[4] c_av_1[1] c_av_1[2] c_av_1[3] c_am_1[1] c_am_1[2] c_am_1[3] c_i_1[1] c_i_1[2] c_i_1[3] c_f_1[1] c_f_1[2] c_f_1[3] c_t_1[1] c_t_1[2] c_t_1[3] 
3.10862e-17 -1.55431e-17 6.99441e-17 6.34413e-17 -3.17207e-17 1.42743e-16 0.1614 0.0419523 -0.228138 0.959241 0.633888 0.0219865 -0.986818 1.88248 0.988024 -5.60894 3 3 6 0 0 0 0 0 0 
ITEM: TIMESTEP
50000
ITEM: NUMBER OF ENTRIES
1
ITEM: BOX BOUNDS pp pp pp
-25 25
-25 25
-25 25
ITEM: ENTRIES c_com_1[1] c_com_1[2] c_com_1[3] c_vel_1[1] c_vel_1[2] c_vel_1[3] c_q_1[1] c_q_1[2] c_q_1[3] c_q_1[4] c_av_1[1] c_av_1[2] c_av_1[3] c_am_1[1] c_am_1[2] c_am_1[3] c_i_1[1] c_i_1[2] c_i_1[3] c_f_1[1] c_f_1[2] c_f_1[3] c_t_1[1] c_t_1[2] c_t_1[3] 
3.17207e-17 -1.58603e-17 7.13715e-17 6.34413e-17 -3.17207e-17 1.42743e-16 0.164615 0.0419677 -0.232755 0.957583 0.630993 0.0163603 -0.98878 1.88248 0.988024 -5.60894 3 3 6 0 0 0 0 0 0 
ITEM: TIMESTEP
51000
ITEM: NUMBER OF ENTRIES
1
ITEM: BOX BOUNDS pp pp pp
-25 25
-25 25
-25 25
ITEM: ENTRIES c_com_1[1] c_com_1[2] c_com_1[3] c_vel_1[1] c_vel_1[2] c_vel_1[3] c_q_1[1] c_q_1[2] c_q_1[3] c_q_1[4] c_av_1[1] c_av_1[2] c_av_1[3] c_am_1[1] c_am_1[2] c_am_1[3] c_i_1[1] c_i_1[2] c_i_1[3] c_f_1[1] c_f_1[2] c_f_1[3] c_t_1[1] c_t_1[2] c_t_1[3] 
3.23551e-17 -1.61775e-17 7.27989e-17 6.34413e-17 -3.17207e-17 1.42743e-16 0.167819 0.0419499 -0.237369 0.955894 0.627987 0.0108016 -0.990768 1.88248 0.988024 -5.60894 3 3 6 0 0 0 0 0 0 
ITEM: TIMESTEP
52000
ITEM: NUMBER OF ENTRIES
1
ITEM: BOX BOUNDS pp pp pp
-25 25
-25 25
-25 25
ITEM: ENTRIES c_com_1[1] c_com_1[2] c_com_1[3] c_vel_1[1] c_vel_1[2] c_vel_1[3] c_q_1[1] c_q_1[2] c_q_1[3] c_q_1[4] c_av_1[1] c_av_1[2] c_av_1[3] c_am_1[1] c_am_1[2] c_am_1[3] c_i_1[1] c_i_1[2] c_i_1[3] c_f_1[1] c_f_1[2] c_f_1[3] c_t_1[1] c_t_1[2] c_t_1[3] 
3.29895e-17 -1.64947e-17 7.42263e-17 6.34413e-17 -3.17207e-17 1.42743e-16 0.171008 0.041899 -0.24198 0.954173 0.624871 0.00531274 -0.992781 1.88248 0.988024 -5.60894 3 3 6 0 0 0 0 0 0 
ITEM: TIMESTEP
53000
ITEM: NUMBER OF ENTRIES
1
ITEM: BOX BOUNDS pp pp pp
-25 25
-25 25
-25 25
ITEM: ENTRIES c_com_1[1] c_com_1[2] c_com_1[3] c_vel_1[1] c_vel_1[2] c_vel_1[3] c_q_1[1] c_q_1[2] c_q_1[3] c_q_1[4] c_av_1[1] c_av_1[2] c_av_1[3] c_am_1[1] c_am_1[2] c_am_1[3] c_i_1[1] c_i_1[2] c_i_1[3] c_f_1[1] c_f_1[2] c_f_1[3] c_t_1[1] c_t_1[2] c_t_1[3] 
3.36239e-17 -1.68119e-17 7.56538e-17 6.34413e-17 -3.17207e-17 1.42743e-16 0.174184 0.041815 -0.246589 0.952421 0.621647 -0.000104165 -0.994817 1.88248 0.988024 -5.60894 3 3 6 0 0 0 0 0 0 
ITEM: TIMESTEP
54000
ITEM: NUMBER OF ENTRIES
1
ITEM: BOX BOUNDS pp pp pp
-25 25
-25 25
-25 25
ITEM: ENTRIES c_com_1[1] c_com_1[2] c_com_1[3] c_vel_1[1] c_vel_1[2] c_vel_1[3] c_q_1[1] c_q_1[2] c_q_1[3] c_q_1[4] c_av_1[1] c_av_1[2] c_av_1[3] c_am_1[1] c_am_1[2] c_am_1[3] c_i_1[1] c_i_1[2] c_i_1[3] c_f_1[1] c_f_1[2] c_f_1[3] c_t_1[1] c_t_1[2] c_t_1[3] 
3.42583e-17 -1.71292e-17 7.70812e-17 6.34413e-17 -3.17207e-17 1.42743e-16 0.177345 0.0416981 -0.251195 0.950637 0.618315 -0.00544693 -0.996877 1.88248 0.988024 -5.60894 3 3 6 0 0 0 0 0 0 
ITEM: TIMESTEP
55000
ITEM: NUMBER OF ENTRIES
1
ITEM: BOX BOUNDS pp pp pp
-25 25
-25 25
-25 25
ITEM: ENTRIES c_com_1[1] c_com_1[2] c_com_1[3] c_vel_1[1] c_vel_1[2] c_vel_1[3] c_q_1[1] c_q_1[2] c_q_1[3] c_q_1[4] c_av_1[1] c_av_1[2] c_av_1[3] c_am_1[1] c_am_1[2] c_am_1[3] c_i_1[1] c_i_1[2] c_i_1[3] c_f_1[1] c_f_1[2] c_f_1[3] c_t_1[1] c_t_1[2] c_t_1[3] 