
# Simulation Parameters
variable log_freq equal 1000                   # log frequency
variable runsteps equal 4000000              # N of steps to run for
variable timestep equal 0.00001                 # timestep

# -------------------------- ATOMS/MOLECULE DEFINITION --------------------------
read_data hex.conf                              # Add a hexagon molecule
  orthogonal box = (-25 -25 -25) to (25 25 25)
  1 by 1 by 1 MPI processor grid
  reading atoms ...
  7 atoms
  scanning bonds ...
  6 = max bonds/atom
  scanning angles ...
  6 = max angles/atom
  reading bonds ...
  12 bonds
  reading angles ...
  11 angles
  6 = max # of 1-2 neighbors
  12 = max # of 1-3 neighbors
  36 = max # of 1-4 neighbors
  6 = max # of special neighbors
  special bonds CPU = 0.0008367 secs
  read_data CPU = 0.0122732 secs
# read_data hex.conf add append shift 10.0 0.0 0.0 # Add a second identical molecule, shifted so it doesn't overlap

# Group ID can be used in other commands, including fix, compute, dump or velocity
group       hex_1 id 1 2 3 4 5 6 7              # label the atoms 1-7 as a group
7 atoms in group hex_1
# group       hex_2 id 8 9 10 11 12 13 14         # label the atoms 8-14 as another group

# -------------------------- INTERATOMIC POTENTIALS -----------------------------
# Pairwise potentials
pair_style  lj/cut  ${cut}                      # lj truncated - cutoff at 1.12 sigma
pair_style  lj/cut  2.5                      
pair_coeff  *   *   1.0 ${sigma}                # epsilon | sigma - * * means all atoms interact with each other
pair_coeff  *   *   1.0 1                
# fix hex_spring_NVT hex_1 spring couple hex_2 1.0 0.0 0.0 0.0 ${r0} # adds harmonic spring between rigid bodies
                            # f_hex_spring[1,2,3,4] = force_x, force_y, force_z, magnitude of the force


################## SYSTEM INITIALISATION WITH AN NVT SIMULATION ##################
# -------------------------------------------------------------------------------
# Add energy to the system by running an NVT simulation, use a very stiff spring to
# keep rigid bodies close. Then, remove (unfix) the thermostat and spring before
# initialising and running the more important NVE simulation
# -------------------------------------------------------------------------------

# System fixes: spring and nose-hoover thermostat
# fix hex_spring_NVT hex_1 spring couple hex_2 1 0 0 0 ${r0} # adds harmonic spring between RBs
fix rigid_1_NVT hex_1 rigid/nvt/small molecule temp ${temp} ${temp} 1.0 tparam 10 3 3
fix rigid_1_NVT hex_1 rigid/nvt/small molecule temp 2.25 ${temp} 1.0 tparam 10 3 3
fix rigid_1_NVT hex_1 rigid/nvt/small molecule temp 2.25 2.25 1.0 tparam 10 3 3
  create bodies CPU = 0.0004082 secs
1 rigid bodies with 7 atoms
  1 = max distance from body owner to body atom
# fix rigid_2_NVT hex_2 rigid/nvt/small molecule temp ${temp} ${temp} 1.0 tparam 10 3 3

# Basic output to terminal
thermo ${log_freq}
thermo 1000
thermo_style custom step temp pe ke etotal

# Set temperature and run simulation
velocity hex_1 create ${temp} 10
velocity hex_1 create 2.25 10
WARNING: Changing velocities of atoms in rigid bodies. This has no effect unless rigid bodies are rebuild (src/velocity.cpp:71)
WARNING: Cannot count rigid body degrees-of-freedom before bodies are fully initialized (src/RIGID/fix_rigid_small.cpp:1157)
run 0
WARNING: Bonds are defined but no bond style is set (src/force.cpp:205)
WARNING: Likewise 1-2 special neighbor interactions != 1.0 (src/force.cpp:207)
WARNING: Angles are defined but no angle style is set (src/force.cpp:210)
WARNING: Likewise 1-3 special neighbor interactions != 1.0 (src/force.cpp:212)
Neighbor list info ...
  update every 1 steps, delay 10 steps, check yes
  max neighbors/atom: 2000, page size: 100000
  master list distance cutoff = 2.8
  ghost atom cutoff = 2.8
  binsize = 1.4, bins = 36 36 36
  1 neighbor lists, perpetual/occasional/extra = 1 0 0
  (1) pair lj/cut, perpetual
      attributes: half, newton on
      pair build: half/bin/newton
      stencil: half/bin/3d/newton
      bin: standard
Per MPI rank memory allocation (min/avg/max) = 13.34 | 13.34 | 13.34 Mbytes
Step Temp PotEng KinEng TotEng 
       0     2.291061            0   0.49094163   0.49094163 
Loop time of 9e-07 on 1 procs for 0 steps with 7 atoms

333.3% CPU use with 1 MPI tasks x no OpenMP threads

MPI task timing breakdown:
Section |  min time  |  avg time  |  max time  |%varavg| %total
---------------------------------------------------------------
Pair    | 0          | 0          | 0          |   0.0 |  0.00
Bond    | 0          | 0          | 0          |   0.0 |  0.00
Neigh   | 0          | 0          | 0          |   0.0 |  0.00
Comm    | 0          | 0          | 0          |   0.0 |  0.00
Output  | 0          | 0          | 0          |   0.0 |  0.00
Modify  | 0          | 0          | 0          |   0.0 |  0.00
Other   |            | 9e-07      |            |       |100.00

Nlocal:    7 ave 7 max 7 min
Histogram: 1 0 0 0 0 0 0 0 0 0
Nghost:    0 ave 0 max 0 min
Histogram: 1 0 0 0 0 0 0 0 0 0
Neighs:    0 ave 0 max 0 min
Histogram: 1 0 0 0 0 0 0 0 0 0

Total # of neighbors = 0
Ave neighs/atom = 0
Ave special neighs/atom = 6
Neighbor list builds = 0
Dangerous builds = 0
velocity all scale ${temp}
velocity all scale 2.25
WARNING: Changing velocities of atoms in rigid bodies. This has no effect unless rigid bodies are rebuild (src/velocity.cpp:71)
run 0
WARNING: Bonds are defined but no bond style is set (src/force.cpp:205)
WARNING: Likewise 1-2 special neighbor interactions != 1.0 (src/force.cpp:207)
WARNING: Angles are defined but no angle style is set (src/force.cpp:210)
WARNING: Likewise 1-3 special neighbor interactions != 1.0 (src/force.cpp:212)
Per MPI rank memory allocation (min/avg/max) = 13.34 | 13.34 | 13.34 Mbytes
Step Temp PotEng KinEng TotEng 
       0         2.25            0   0.48214286   0.48214286 
Loop time of 8e-07 on 1 procs for 0 steps with 7 atoms

250.0% CPU use with 1 MPI tasks x no OpenMP threads

MPI task timing breakdown:
Section |  min time  |  avg time  |  max time  |%varavg| %total
---------------------------------------------------------------
Pair    | 0          | 0          | 0          |   0.0 |  0.00
Bond    | 0          | 0          | 0          |   0.0 |  0.00
Neigh   | 0          | 0          | 0          |   0.0 |  0.00
Comm    | 0          | 0          | 0          |   0.0 |  0.00
Output  | 0          | 0          | 0          |   0.0 |  0.00
Modify  | 0          | 0          | 0          |   0.0 |  0.00
Other   |            | 8e-07      |            |       |100.00

Nlocal:    7 ave 7 max 7 min
Histogram: 1 0 0 0 0 0 0 0 0 0
Nghost:    0 ave 0 max 0 min
Histogram: 1 0 0 0 0 0 0 0 0 0
Neighs:    0 ave 0 max 0 min
Histogram: 1 0 0 0 0 0 0 0 0 0

Total # of neighbors = 0
Ave neighs/atom = 0
Ave special neighs/atom = 6
Neighbor list builds = 0
Dangerous builds = 0

unfix rigid_1_NVT
# unfix rigid_2_NVT
# unfix hex_spring_NVT

################################ NVE SIMULATION #################################
# ------------------------------- SYSTEM FIXES ----------------------------------
fix rig_hex_1 hex_1 rigid/nve/small molecule
  create bodies CPU = 9.8e-06 secs
1 rigid bodies with 7 atoms
  1 = max distance from body owner to body atom
# fix rig_hex_2 hex_2 rigid/nve/small molecule
# fix hex_spring hex_1 spring couple hex_2 ${K} 0.0 0.0 0.0 ${r0} # spring between RBs
# f_hex_spring[1,2,3,4] = force_x, force_y, force_z, magnitude of the force

# ----------------------------- PROPERTY COMPUTES -------------------------------
# Calculate rigid body properties - local data, so must be outputted using dump ... "local"
compute com_1   all rigid/local rig_hex_1 xu yu zu                  # RB1 unscaled center of mass x, y, z
# compute com_2   all rigid/local rig_hex_2 xu yu zu                  # RB2 unscaled center of mass x, y, z
compute vel_1   all rigid/local rig_hex_1 vx vy vz                  # RB1 center of mass velocities vx, vy, vz
# compute vel_2   all rigid/local rig_hex_2 vx vy vz                  # RB2 center of mass velocities vx, vy, vz
compute q_1     all rigid/local rig_hex_1 quati quatj quatk quatw   # RB1 quaternion components
# compute q_2     all rigid/local rig_hex_2 quati quatj quatk quatw   # RB2 quaternion components
compute av_1    all rigid/local rig_hex_1 omegax omegay omegaz      # RB1 angular velocities
# compute av_2    all rigid/local rig_hex_2 omegax omegay omegaz      # RB2 angular velocities
compute am_1    all rigid/local rig_hex_1 angmomx angmomy angmomz   # RB1 angular momenta
# compute am_2    all rigid/local rig_hex_2 angmomx angmomy angmomz   # RB2 angular momenta
compute f_1   all rigid/local rig_hex_1 fx fy fz
compute t_1   all rigid/local rig_hex_1 tqx tqy tqz
compute i_1    all rigid/local rig_hex_1 inertiax inertiay inertiaz # RB1 inertia
# compute i_2    all rigid/local rig_hex_2 inertiax inertiay inertiaz # RB2 inertia

# ----------------------------- CONFIGURE OUTPUTS -------------------------------
thermo_style custom step temp pe ke etotal
dump    1 all custom ${log_freq} ${traj}       id type x y z
dump    1 all custom 1000 ${traj}       id type x y z
dump    1 all custom 1000 NVE-temp-2.25_K-0.018140589569161_r-0_s-5-traj.dump       id type x y z
dump    2 all local  ${log_freq} ${rb_info}  c_com_1[*]      c_vel_1[*] c_q_1[*]  c_av_1[*]        c_am_1[*] c_i_1[*] c_f_1[*] c_t_1[*]
dump    2 all local  1000 ${rb_info}  c_com_1[*]      c_vel_1[*] c_q_1[*]  c_av_1[*]        c_am_1[*] c_i_1[*] c_f_1[*] c_t_1[*]
dump    2 all local  1000 NVE-temp-2.25_K-0.018140589569161_r-0_s-5-info.dat  c_com_1[*]      c_vel_1[*] c_q_1[*]  c_av_1[*]        c_am_1[*] c_i_1[*] c_f_1[*] c_t_1[*]

log ${sim_log} # create new log file with simulation information only
log NVE-temp-2.25_K-0.018140589569161_r-0_s-5-sim.log 
