ITEM: TIMESTEP
0
ITEM: NUMBER OF ATOMS
7
ITEM: BOX BOUNDS pp pp pp
-2.5000000000000000e+01 2.5000000000000000e+01
-2.5000000000000000e+01 2.5000000000000000e+01
-2.5000000000000000e+01 2.5000000000000000e+01
ITEM: ATOMS id type x y z 
5 1 -0.5 -0.866025 0 
6 1 0.5 -0.866025 0 
4 1 -1 0 0 
7 1 0 0 0 
1 1 1 0 0 
2 1 0.5 0.866025 0 
3 1 -0.5 0.866025 0 
ITEM: TIMESTEP
1000
ITEM: NUMBER OF ATOMS
7
ITEM: BOX BOUNDS pp pp pp
-2.5000000000000000e+01 2.5000000000000000e+01
-2.5000000000000000e+01 2.5000000000000000e+01
-2.5000000000000000e+01 2.5000000000000000e+01
ITEM: ATOMS id type x y z 
5 1 -0.50808 -0.861302 -0.00378744 
6 1 0.491871 -0.870639 -0.00708078 
4 1 -0.999951 0.00933779 0.00329334 
7 1 6.34413e-19 -3.17207e-19 1.42743e-18 
1 1 0.999951 -0.00933779 -0.00329334 
2 1 0.50808 0.861302 0.00378744 
3 1 -0.491871 0.870639 0.00708078 
ITEM: TIMESTEP
2000
ITEM: NUMBER OF ATOMS
7
ITEM: BOX BOUNDS pp pp pp
-2.5000000000000000e+01 2.5000000000000000e+01
-2.5000000000000000e+01 2.5000000000000000e+01
-2.5000000000000000e+01 2.5000000000000000e+01
ITEM: ATOMS id type x y z 
5 1 -0.516128 -0.856478 -0.00757436 
6 1 0.483676 -0.875132 -0.0141606 
4 1 -0.999804 0.0186543 0.00658623 
7 1 1.26883e-18 -6.34413e-19 2.85486e-18 
1 1 0.999804 -0.0186543 -0.00658623 
2 1 0.516128 0.856478 0.00757436 
3 1 -0.483676 0.875132 0.0141606 
ITEM: TIMESTEP
3000
ITEM: NUMBER OF ATOMS
7
ITEM: BOX BOUNDS pp pp pp
-2.5000000000000000e+01 2.5000000000000000e+01
-2.5000000000000000e+01 2.5000000000000000e+01
-2.5000000000000000e+01 2.5000000000000000e+01
ITEM: ATOMS id type x y z 
5 1 -0.524143 -0.851555 -0.0113602 
6 1 0.475418 -0.879504 -0.0212384 
4 1 -0.999561 0.0279488 0.00987822 
7 1 1.90324e-18 -9.5162e-19 4.28229e-18 
1 1 0.999561 -0.0279488 -0.00987822 
2 1 0.524143 0.851555 0.0113602 
3 1 -0.475418 0.879504 0.0212384 
ITEM: TIMESTEP
4000
ITEM: NUMBER OF ATOMS
7
ITEM: BOX BOUNDS pp pp pp
-2.5000000000000000e+01 2.5000000000000000e+01
-2.5000000000000000e+01 2.5000000000000000e+01
-2.5000000000000000e+01 2.5000000000000000e+01
ITEM: ATOMS id type x y z 
5 1 -0.532123 -0.846532 -0.0151445 
6 1 0.467097 -0.883752 -0.0283134 
4 1 -0.99922 0.0372208 0.0131689 
7 1 2.53765e-18 -1.26883e-18 5.70972e-18 
1 1 0.99922 -0.0372208 -0.0131689 
2 1 0.532123 0.846532 0.0151445 
3 1 -0.467097 0.883752 0.0283134 
ITEM: TIMESTEP
5000
ITEM: NUMBER OF ATOMS
7
ITEM: BOX BOUNDS pp pp pp
-2.5000000000000000e+01 2.5000000000000000e+01
-2.5000000000000000e+01 2.5000000000000000e+01
-2.5000000000000000e+01 2.5000000000000000e+01
ITEM: ATOMS id type x y z 
5 1 -0.540068 -0.841408 -0.0189267 
6 1 0.458716 -0.887878 -0.0353844 
4 1 -0.998784 0.0464697 0.0164578 
7 1 3.17207e-18 -1.58603e-18 7.13715e-18 
1 1 0.998784 -0.0464697 -0.0164578 
2 1 0.540068 0.841408 0.0189267 
3 1 -0.458716 0.887878 0.0353844 
ITEM: TIMESTEP
6000
ITEM: NUMBER OF ATOMS
7
ITEM: BOX BOUNDS pp pp pp
-2.5000000000000000e+01 2.5000000000000000e+01
-2.5000000000000000e+01 2.5000000000000000e+01
-2.5000000000000000e+01 2.5000000000000000e+01
ITEM: ATOMS id type x y z 
5 1 -0.547977 -0.836185 -0.0227061 
6 1 0.450275 -0.89188 -0.0424506 
4 1 -0.998253 0.055695 0.0197445 
7 1 3.80648e-18 -1.90324e-18 8.56458e-18 
1 1 0.998253 -0.055695 -0.0197445 
2 1 0.547977 0.836185 0.0227061 
3 1 -0.450275 0.89188 0.0424506 
ITEM: TIMESTEP
7000
ITEM: NUMBER OF ATOMS
7
ITEM: BOX BOUNDS pp pp pp
-2.5000000000000000e+01 2.5000000000000000e+01
-2.5000000000000000e+01 2.5000000000000000e+01
-2.5000000000000000e+01 2.5000000000000000e+01
ITEM: ATOMS id type x y z 
5 1 -0.555849 -0.830861 -0.0264824 
6 1 0.441777 -0.895757 -0.049511 
4 1 -0.997626 0.0648959 0.0230286 
7 1 4.44089e-18 -2.22045e-18 9.99201e-18 
1 1 0.997626 -0.0648959 -0.0230286 
2 1 0.555849 0.830861 0.0264824 
3 1 -0.441777 0.895757 0.049511 
ITEM: TIMESTEP
8000
ITEM: NUMBER OF ATOMS
7
ITEM: BOX BOUNDS pp pp pp
-2.5000000000000000e+01 2.5000000000000000e+01
-2.5000000000000000e+01 2.5000000000000000e+01
-2.5000000000000000e+01 2.5000000000000000e+01
ITEM: ATOMS id type x y z 
5 1 -0.563682 -0.825438 -0.0302549 
6 1 0.433224 -0.89951 -0.0565645 
4 1 -0.996906 0.0740721 0.0263097 
7 1 5.07531e-18 -2.53765e-18 1.14194e-17 
1 1 0.996906 -0.0740721 -0.0263097 
2 1 0.563682 0.825438 0.0302549 
3 1 -0.433224 0.89951 0.0565645 
ITEM: TIMESTEP
9000
ITEM: NUMBER OF ATOMS
7
ITEM: BOX BOUNDS pp pp pp
-2.5000000000000000e+01 2.5000000000000000e+01
-2.5000000000000000e+01 2.5000000000000000e+01
-2.5000000000000000e+01 2.5000000000000000e+01
ITEM: ATOMS id type x y z 
5 1 -0.571476 -0.819913 -0.034023 
6 1 0.424616 -0.903136 -0.0636103 
4 1 -0.996092 0.083223 0.0295873 
7 1 5.70972e-18 -2.85486e-18 1.28469e-17 
1 1 0.996092 -0.083223 -0.0295873 
2 1 0.571476 0.819913 0.034023 
3 1 -0.424616 0.903136 0.0636103 
ITEM: TIMESTEP
10000
ITEM: NUMBER OF ATOMS
7
ITEM: BOX BOUNDS pp pp pp
-2.5000000000000000e+01 2.5000000000000000e+01
-2.5000000000000000e+01 2.5000000000000000e+01
-2.5000000000000000e+01 2.5000000000000000e+01
ITEM: ATOMS id type x y z 
5 1 -0.579229 -0.814289 -0.0377863 
6 1 0.415955 -0.906637 -0.0706474 
4 1 -0.995184 0.0923481 0.0328612 
7 1 6.34413e-18 -3.17207e-18 1.42743e-17 
1 1 0.995184 -0.0923481 -0.0328612 
2 1 0.579229 0.814289 0.0377863 
3 1 -0.415955 0.906637 0.0706474 
ITEM: TIMESTEP
11000
ITEM: NUMBER OF ATOMS
7
ITEM: BOX BOUNDS pp pp pp
-2.5000000000000000e+01 2.5000000000000000e+01
-2.5000000000000000e+01 2.5000000000000000e+01
-2.5000000000000000e+01 2.5000000000000000e+01
ITEM: ATOMS id type x y z 
5 1 -0.586941 -0.808563 -0.041544 
6 1 0.407244 -0.91001 -0.0776748 
4 1 -0.994185 0.101447 0.0361308 
7 1 6.97854e-18 -3.48927e-18 1.57017e-17 
1 1 0.994185 -0.101447 -0.0361308 
2 1 0.586941 0.808563 0.041544 
3 1 -0.407244 0.91001 0.0776748 
ITEM: TIMESTEP
12000
ITEM: NUMBER OF ATOMS
7
ITEM: BOX BOUNDS pp pp pp
-2.5000000000000000e+01 2.5000000000000000e+01
-2.5000000000000000e+01 2.5000000000000000e+01
-2.5000000000000000e+01 2.5000000000000000e+01
ITEM: ATOMS id type x y z 
5 1 -0.594609 -0.802738 -0.0452958 
6 1 0.398484 -0.913257 -0.0846916 
4 1 -0.993093 0.110519 0.0393958 
7 1 7.61296e-18 -3.80648e-18 1.71292e-17 
1 1 0.993093 -0.110519 -0.0393958 
2 1 0.594609 0.802738 0.0452958 
3 1 -0.398484 0.913257 0.0846916 
ITEM: TIMESTEP
13000
ITEM: NUMBER OF ATOMS
7
ITEM: BOX BOUNDS pp pp pp
-2.5000000000000000e+01 2.5000000000000000e+01
-2.5000000000000000e+01 2.5000000000000000e+01
-2.5000000000000000e+01 2.5000000000000000e+01
ITEM: ATOMS id type x y z 
5 1 -0.602234 -0.796812 -0.0490409 
6 1 0.389676 -0.916376 -0.0916968 
4 1 -0.99191 0.119564 0.0426558 
7 1 8.24737e-18 -4.12369e-18 1.85566e-17 
1 1 0.99191 -0.119564 -0.0426558 
2 1 0.602234 0.796812 0.0490409 
3 1 -0.389676 0.916376 0.0916968 
ITEM: TIMESTEP
14000
ITEM: NUMBER OF ATOMS
7
ITEM: BOX BOUNDS pp pp pp
-2.5000000000000000e+01 2.5000000000000000e+01
-2.5000000000000000e+01 2.5000000000000000e+01
-2.5000000000000000e+01 2.5000000000000000e+01
ITEM: ATOMS id type x y z 
5 1 -0.609814 -0.790786 -0.0527789 
6 1 0.380822 -0.919367 -0.0986894 
4 1 -0.990636 0.128581 0.0459105 
7 1 8.88178e-18 -4.44089e-18 1.9984e-17 
1 1 0.990636 -0.128581 -0.0459105 
2 1 0.609814 0.790786 0.0527789 
3 1 -0.380822 0.919367 0.0986894 
ITEM: TIMESTEP
15000
ITEM: NUMBER OF ATOMS
7
ITEM: BOX BOUNDS pp pp pp
-2.5000000000000000e+01 2.5000000000000000e+01
-2.5000000000000000e+01 2.5000000000000000e+01
-2.5000000000000000e+01 2.5000000000000000e+01
ITEM: ATOMS id type x y z 
5 1 -0.617347 -0.784659 -0.0565091 
6 1 0.371924 -0.922229 -0.105669 
4 1 -0.989271 0.13757 0.0491595 
7 1 9.5162e-18 -4.7581e-18 2.14114e-17 
1 1 0.989271 -0.13757 -0.0491595 
2 1 0.617347 0.784659 0.0565091 
3 1 -0.371924 0.922229 0.105669 
ITEM: TIMESTEP
16000
ITEM: NUMBER OF ATOMS
7
ITEM: BOX BOUNDS pp pp pp
-2.5000000000000000e+01 2.5000000000000000e+01
-2.5000000000000000e+01 2.5000000000000000e+01
-2.5000000000000000e+01 2.5000000000000000e+01
ITEM: ATOMS id type x y z 
5 1 -0.624833 -0.778432 -0.060231 
6 1 0.362984 -0.924963 -0.112633 
4 1 -0.987817 0.146531 0.0524025 
7 1 1.01506e-17 -5.07531e-18 2.28389e-17 
1 1 0.987817 -0.146531 -0.0524025 
2 1 0.624833 0.778432 0.060231 
3 1 -0.362984 0.924963 0.112633 
ITEM: TIMESTEP
17000
ITEM: NUMBER OF ATOMS
7
ITEM: BOX BOUNDS pp pp pp
-2.5000000000000000e+01 2.5000000000000000e+01
-2.5000000000000000e+01 2.5000000000000000e+01
-2.5000000000000000e+01 2.5000000000000000e+01
ITEM: ATOMS id type x y z 
5 1 -0.63227 -0.772105 -0.0639439 
6 1 0.354004 -0.927567 -0.119583 
4 1 -0.986274 0.155463 0.055639 
7 1 1.0785e-17 -5.39251e-18 2.42663e-17 
1 1 0.986274 -0.155463 -0.055639 
2 1 0.63227 0.772105 0.0639439 
3 1 -0.354004 0.927567 0.119583 
ITEM: TIMESTEP
18000
ITEM: NUMBER OF ATOMS
7
ITEM: BOX BOUNDS pp pp pp
-2.5000000000000000e+01 2.5000000000000000e+01
-2.5000000000000000e+01 2.5000000000000000e+01
-2.5000000000000000e+01 2.5000000000000000e+01
ITEM: ATOMS id type x y z 
5 1 -0.639657 -0.765678 -0.0676473 
6 1 0.344984 -0.930043 -0.126516 
4 1 -0.984641 0.164365 0.0588687 
7 1 1.14194e-17 -5.70972e-18 2.56937e-17 
1 1 0.984641 -0.164365 -0.0588687 
2 1 0.639657 0.765678 0.0676473 
3 1 -0.344984 0.930043 0.126516 
ITEM: TIMESTEP
19000
ITEM: NUMBER OF ATOMS
7
ITEM: BOX BOUNDS pp pp pp
-2.5000000000000000e+01 2.5000000000000000e+01
-2.5000000000000000e+01 2.5000000000000000e+01
-2.5000000000000000e+01 2.5000000000000000e+01
ITEM: ATOMS id type x y z 
5 1 -0.646994 -0.759151 -0.0713406 
6 1 0.335927 -0.932389 -0.133432 
4 1 -0.982921 0.173238 0.0620914 
7 1 1.20538e-17 -6.02692e-18 2.71212e-17 
1 1 0.982921 -0.173238 -0.0620914 
2 1 0.646994 0.759151 0.0713406 
3 1 -0.335927 0.932389 0.133432 
ITEM: TIMESTEP
20000
ITEM: NUMBER OF ATOMS
7
ITEM: BOX BOUNDS pp pp pp
-2.5000000000000000e+01 2.5000000000000000e+01
-2.5000000000000000e+01 2.5000000000000000e+01
-2.5000000000000000e+01 2.5000000000000000e+01
ITEM: ATOMS id type x y z 
5 1 -0.654278 -0.752524 -0.0750233 
6 1 0.326835 -0.934605 -0.14033 
4 1 -0.981112 0.182081 0.0653067 
7 1 1.26883e-17 -6.34413e-18 2.85486e-17 
1 1 0.981112 -0.182081 -0.0653067 
2 1 0.654278 0.752524 0.0750233 
3 1 -0.326835 0.934605 0.14033 
ITEM: TIMESTEP
21000
ITEM: NUMBER OF ATOMS
7
ITEM: BOX BOUNDS pp pp pp
-2.5000000000000000e+01 2.5000000000000000e+01
-2.5000000000000000e+01 2.5000000000000000e+01
-2.5000000000000000e+01 2.5000000000000000e+01
ITEM: ATOMS id type x y z 
5 1 -0.661508 -0.745798 -0.0786946 
6 1 0.317709 -0.936691 -0.147209 
4 1 -0.979217 0.190894 0.0685142 
7 1 1.33227e-17 -6.66134e-18 2.9976e-17 
1 1 0.979217 -0.190894 -0.0685142 
2 1 0.661508 0.745798 0.0786946 
3 1 -0.317709 0.936691 0.147209 
ITEM: TIMESTEP
22000
ITEM: NUMBER OF ATOMS
7
ITEM: BOX BOUNDS pp pp pp
-2.5000000000000000e+01 2.5000000000000000e+01
-2.5000000000000000e+01 2.5000000000000000e+01
-2.5000000000000000e+01 2.5000000000000000e+01
ITEM: ATOMS id type x y z 
5 1 -0.668684 -0.738972 -0.0823541 
6 1 0.308551 -0.938648 -0.154068 
4 1 -0.977234 0.199675 0.0717137 
7 1 1.39571e-17 -6.97854e-18 3.14035e-17 
1 1 0.977234 -0.199675 -0.0717137 
2 1 0.668684 0.738972 0.0823541 
3 1 -0.308551 0.938648 0.154068 
ITEM: TIMESTEP
23000
ITEM: NUMBER OF ATOMS
7
ITEM: BOX BOUNDS pp pp pp
-2.5000000000000000e+01 2.5000000000000000e+01
-2.5000000000000000e+01 2.5000000000000000e+01
-2.5000000000000000e+01 2.5000000000000000e+01
ITEM: ATOMS id type x y z 
5 1 -0.675803 -0.732048 -0.0860011 
6 1 0.299363 -0.940474 -0.160906 
4 1 -0.975166 0.208426 0.0749048 
7 1 1.45915e-17 -7.29575e-18 3.28309e-17 
1 1 0.975166 -0.208426 -0.0749048 
2 1 0.675803 0.732048 0.0860011 
3 1 -0.299363 0.940474 0.160906 
ITEM: TIMESTEP
24000
ITEM: NUMBER OF ATOMS
7
ITEM: BOX BOUNDS pp pp pp
-2.5000000000000000e+01 2.5000000000000000e+01
-2.5000000000000000e+01 2.5000000000000000e+01
-2.5000000000000000e+01 2.5000000000000000e+01
ITEM: ATOMS id type x y z 
5 1 -0.682865 -0.725025 -0.089635 
6 1 0.290146 -0.94217 -0.167722 
4 1 -0.973011 0.217146 0.0780873 
7 1 1.52259e-17 -7.61296e-18 3.42583e-17 
1 1 0.973011 -0.217146 -0.0780873 
2 1 0.682865 0.725025 0.089635 
3 1 -0.290146 0.94217 0.167722 
ITEM: TIMESTEP
25000
ITEM: NUMBER OF ATOMS
7
ITEM: BOX BOUNDS pp pp pp
-2.5000000000000000e+01 2.5000000000000000e+01
-2.5000000000000000e+01 2.5000000000000000e+01
-2.5000000000000000e+01 2.5000000000000000e+01
ITEM: ATOMS id type x y z 
5 1 -0.689869 -0.717903 -0.0932553 
6 1 0.280902 -0.943736 -0.174516 
4 1 -0.970771 0.225833 0.0812609 
7 1 1.58603e-17 -7.93016e-18 3.56857e-17 
1 1 0.970771 -0.225833 -0.0812609 
2 1 0.689869 0.717903 0.0932553 
3 1 -0.280902 0.943736 0.174516 
ITEM: TIMESTEP
26000
ITEM: NUMBER OF ATOMS
7
ITEM: BOX BOUNDS pp pp pp
-2.5000000000000000e+01 2.5000000000000000e+01
-2.5000000000000000e+01 2.5000000000000000e+01
-2.5000000000000000e+01 2.5000000000000000e+01
ITEM: ATOMS id type x y z 
6 1 0.271633 -0.945172 -0.181287 
4 1 -0.968446 0.234489 0.0844253 
5 1 -0.696812 -0.710683 -0.0968613 
7 1 1.64947e-17 -8.24737e-18 3.71132e-17 
2 1 0.696812 0.710683 0.0968613 
1 1 0.968446 -0.234489 -0.0844253 
3 1 -0.271633 0.945172 0.181287 
ITEM: TIMESTEP
27000
ITEM: NUMBER OF ATOMS
7
ITEM: BOX BOUNDS pp pp pp
-2.5000000000000000e+01 2.5000000000000000e+01
-2.5000000000000000e+01 2.5000000000000000e+01
-2.5000000000000000e+01 2.5000000000000000e+01
ITEM: ATOMS id type x y z 
6 1 0.262341 -0.946478 -0.188033 
4 1 -0.966036 0.243113 0.0875802 
5 1 -0.703695 -0.703365 -0.100452 
7 1 1.71292e-17 -8.56458e-18 3.85406e-17 
2 1 0.703695 0.703365 0.100452 
1 1 0.966036 -0.243113 -0.0875802 
3 1 -0.262341 0.946478 0.188033 
ITEM: TIMESTEP
28000
ITEM: NUMBER OF ATOMS
7
ITEM: BOX BOUNDS pp pp pp
-2.5000000000000000e+01 2.5000000000000000e+01
-2.5000000000000000e+01 2.5000000000000000e+01
-2.5000000000000000e+01 2.5000000000000000e+01
ITEM: ATOMS id type x y z 
6 1 0.253028 -0.947654 -0.194753 
4 1 -0.963542 0.251704 0.0907253 
5 1 -0.710515 -0.69595 -0.104028 
7 1 1.77636e-17 -8.88178e-18 3.9968e-17 
2 1 0.710515 0.69595 0.104028 
1 1 0.963542 -0.251704 -0.0907253 
3 1 -0.253028 0.947654 0.194753 
ITEM: TIMESTEP
29000
ITEM: NUMBER OF ATOMS
7
ITEM: BOX BOUNDS pp pp pp
-2.5000000000000000e+01 2.5000000000000000e+01
-2.5000000000000000e+01 2.5000000000000000e+01
-2.5000000000000000e+01 2.5000000000000000e+01
ITEM: ATOMS id type x y z 
6 1 0.243694 -0.9487 -0.201448 
4 1 -0.960965 0.260262 0.0938604 
5 1 -0.717271 -0.688438 -0.107588 
7 1 1.8398e-17 -9.19899e-18 4.13955e-17 
2 1 0.717271 0.688438 0.107588 
1 1 0.960965 -0.260262 -0.0938604 
3 1 -0.243694 0.9487 0.201448 
ITEM: TIMESTEP
30000
ITEM: NUMBER OF ATOMS
7
ITEM: BOX BOUNDS pp pp pp
-2.5000000000000000e+01 2.5000000000000000e+01
-2.5000000000000000e+01 2.5000000000000000e+01
-2.5000000000000000e+01 2.5000000000000000e+01
ITEM: ATOMS id type x y z 
6 1 0.234342 -0.949616 -0.208116 
4 1 -0.958304 0.268787 0.0969853 
5 1 -0.723962 -0.680829 -0.111131 
7 1 1.90324e-17 -9.5162e-18 4.28229e-17 
2 1 0.723962 0.680829 0.111131 
1 1 0.958304 -0.268787 -0.0969853 
3 1 -0.234342 0.949616 0.208116 
ITEM: TIMESTEP
31000
ITEM: NUMBER OF ATOMS
7
ITEM: BOX BOUNDS pp pp pp
-2.5000000000000000e+01 2.5000000000000000e+01
-2.5000000000000000e+01 2.5000000000000000e+01
-2.5000000000000000e+01 2.5000000000000000e+01
ITEM: ATOMS id type x y z 
6 1 0.224974 -0.950403 -0.214756 
4 1 -0.955561 0.277279 0.1001 
5 1 -0.730587 -0.673124 -0.114657 
7 1 1.96668e-17 -9.8334e-18 4.42503e-17 
2 1 0.730587 0.673124 0.114657 
1 1 0.955561 -0.277279 -0.1001 
3 1 -0.224974 0.950403 0.214756 
ITEM: TIMESTEP
32000
ITEM: NUMBER OF ATOMS
7
ITEM: BOX BOUNDS pp pp pp
-2.5000000000000000e+01 2.5000000000000000e+01
-2.5000000000000000e+01 2.5000000000000000e+01
-2.5000000000000000e+01 2.5000000000000000e+01
ITEM: ATOMS id type x y z 
6 1 0.215591 -0.951061 -0.221368 
4 1 -0.952735 0.285737 0.103203 
5 1 -0.737144 -0.665324 -0.118165 
7 1 2.03012e-17 -1.01506e-17 4.56777e-17 
2 1 0.737144 0.665324 0.118165 
1 1 0.952735 -0.285737 -0.103203 
3 1 -0.215591 0.951061 0.221368 
ITEM: TIMESTEP
33000
ITEM: NUMBER OF ATOMS
7
ITEM: BOX BOUNDS pp pp pp
-2.5000000000000000e+01 2.5000000000000000e+01
-2.5000000000000000e+01 2.5000000000000000e+01
-2.5000000000000000e+01 2.5000000000000000e+01
ITEM: ATOMS id type x y z 
6 1 0.206195 -0.951589 -0.22795 
4 1 -0.949826 0.294161 0.106296 
5 1 -0.743632 -0.657428 -0.121654 
7 1 2.09356e-17 -1.04678e-17 4.71052e-17 
2 1 0.743632 0.657428 0.121654 
1 1 0.949826 -0.294161 -0.106296 
3 1 -0.206195 0.951589 0.22795 
ITEM: TIMESTEP
34000
ITEM: NUMBER OF ATOMS
7
ITEM: BOX BOUNDS pp pp pp
-2.5000000000000000e+01 2.5000000000000000e+01
-2.5000000000000000e+01 2.5000000000000000e+01
-2.5000000000000000e+01 2.5000000000000000e+01
ITEM: ATOMS id type x y z 
6 1 0.196787 -0.951989 -0.234502 
4 1 -0.946836 0.302551 0.109377 
5 1 -0.750049 -0.649438 -0.125125 
7 1 2.157e-17 -1.0785e-17 4.85326e-17 
2 1 0.750049 0.649438 0.125125 
1 1 0.946836 -0.302551 -0.109377 
3 1 -0.196787 0.951989 0.234502 
ITEM: TIMESTEP
35000
ITEM: NUMBER OF ATOMS
7
ITEM: BOX BOUNDS pp pp pp
-2.5000000000000000e+01 2.5000000000000000e+01
-2.5000000000000000e+01 2.5000000000000000e+01
-2.5000000000000000e+01 2.5000000000000000e+01
ITEM: ATOMS id type x y z 
6 1 0.18737 -0.952261 -0.241024 
4 1 -0.943765 0.310907 0.112448 
5 1 -0.756395 -0.641354 -0.128576 
7 1 2.22045e-17 -1.11022e-17 4.996e-17 
2 1 0.756395 0.641354 0.128576 
1 1 0.943765 -0.310907 -0.112448 
3 1 -0.18737 0.952261 0.241024 
ITEM: TIMESTEP
36000
ITEM: NUMBER OF ATOMS
7
ITEM: BOX BOUNDS pp pp pp
-2.5000000000000000e+01 2.5000000000000000e+01
-2.5000000000000000e+01 2.5000000000000000e+01
-2.5000000000000000e+01 2.5000000000000000e+01
ITEM: ATOMS id type x y z 
6 1 0.177944 -0.952404 -0.247513 
4 1 -0.940612 0.319228 0.115506 
5 1 -0.762668 -0.633176 -0.132007 
7 1 2.28389e-17 -1.14194e-17 5.13875e-17 
2 1 0.762668 0.633176 0.132007 
1 1 0.940612 -0.319228 -0.115506 
3 1 -0.177944 0.952404 0.247513 
ITEM: TIMESTEP
37000
ITEM: NUMBER OF ATOMS
7
ITEM: BOX BOUNDS pp pp pp
-2.5000000000000000e+01 2.5000000000000000e+01
-2.5000000000000000e+01 2.5000000000000000e+01
-2.5000000000000000e+01 2.5000000000000000e+01
ITEM: ATOMS id type x y z 
6 1 0.168513 -0.952419 -0.25397 
4 1 -0.937379 0.327514 0.118553 
5 1 -0.768867 -0.624905 -0.135417 
7 1 2.34733e-17 -1.17366e-17 5.28149e-17 
2 1 0.768867 0.624905 0.135417 
1 1 0.937379 -0.327514 -0.118553 
3 1 -0.168513 0.952419 0.25397 
ITEM: TIMESTEP
38000
ITEM: NUMBER OF ATOMS
7
ITEM: BOX BOUNDS pp pp pp
-2.5000000000000000e+01 2.5000000000000000e+01
-2.5000000000000000e+01 2.5000000000000000e+01
-2.5000000000000000e+01 2.5000000000000000e+01
ITEM: ATOMS id type x y z 
6 1 0.159076 -0.952308 -0.260393 
4 1 -0.934065 0.335765 0.121587 
5 1 -0.774989 -0.616542 -0.138806 
7 1 2.41077e-17 -1.20538e-17 5.42423e-17 
2 1 0.774989 0.616542 0.138806 
1 1 0.934065 -0.335765 -0.121587 
3 1 -0.159076 0.952308 0.260393 
ITEM: TIMESTEP
39000
ITEM: NUMBER OF ATOMS
7
ITEM: BOX BOUNDS pp pp pp
-2.5000000000000000e+01 2.5000000000000000e+01
-2.5000000000000000e+01 2.5000000000000000e+01
-2.5000000000000000e+01 2.5000000000000000e+01
ITEM: ATOMS id type x y z 
6 1 0.149637 -0.952069 -0.266783 
4 1 -0.930672 0.343981 0.12461 
5 1 -0.781035 -0.608088 -0.142173 
7 1 2.47421e-17 -1.23711e-17 5.56698e-17 
2 1 0.781035 0.608088 0.142173 
1 1 0.930672 -0.343981 -0.12461 
3 1 -0.149637 0.952069 0.266783 
ITEM: TIMESTEP
40000
ITEM: NUMBER OF ATOMS
7
ITEM: BOX BOUNDS pp pp pp
-2.5000000000000000e+01 2.5000000000000000e+01
-2.5000000000000000e+01 2.5000000000000000e+01
-2.5000000000000000e+01 2.5000000000000000e+01
ITEM: ATOMS id type x y z 
6 1 0.140196 -0.951704 -0.273137 
4 1 -0.927198 0.352161 0.12762 
5 1 -0.787002 -0.599543 -0.145517 
7 1 2.53765e-17 -1.26883e-17 5.70972e-17 
2 1 0.787002 0.599543 0.145517 
1 1 0.927198 -0.352161 -0.12762 
3 1 -0.140196 0.951704 0.273137 
ITEM: TIMESTEP
41000
ITEM: NUMBER OF ATOMS
7
ITEM: BOX BOUNDS pp pp pp
-2.5000000000000000e+01 2.5000000000000000e+01
-2.5000000000000000e+01 2.5000000000000000e+01
-2.5000000000000000e+01 2.5000000000000000e+01
ITEM: ATOMS id type x y z 
6 1 0.130755 -0.951214 -0.279457 
4 1 -0.923645 0.360305 0.130618 
5 1 -0.79289 -0.590908 -0.148839 
7 1 2.60109e-17 -1.30055e-17 5.85246e-17 
2 1 0.79289 0.590908 0.148839 
1 1 0.923645 -0.360305 -0.130618 
3 1 -0.130755 0.951214 0.279457 
ITEM: TIMESTEP
42000
ITEM: NUMBER OF ATOMS
7
ITEM: BOX BOUNDS pp pp pp
-2.5000000000000000e+01 2.5000000000000000e+01
-2.5000000000000000e+01 2.5000000000000000e+01
-2.5000000000000000e+01 2.5000000000000000e+01
ITEM: ATOMS id type x y z 
6 1 0.121316 -0.950597 -0.285739 
4 1 -0.920012 0.368413 0.133602 
5 1 -0.798696 -0.582184 -0.152137 
7 1 2.66454e-17 -1.33227e-17 5.9952e-17 
2 1 0.798696 0.582184 0.152137 
1 1 0.920012 -0.368413 -0.133602 
3 1 -0.121316 0.950597 0.285739 
ITEM: TIMESTEP
43000
ITEM: NUMBER OF ATOMS
7
ITEM: BOX BOUNDS pp pp pp
-2.5000000000000000e+01 2.5000000000000000e+01
-2.5000000000000000e+01 2.5000000000000000e+01
-2.5000000000000000e+01 2.5000000000000000e+01
ITEM: ATOMS id type x y z 
6 1 0.11188 -0.949857 -0.291985 
4 1 -0.916301 0.376485 0.136574 
5 1 -0.80442 -0.573372 -0.155411 
7 1 2.72798e-17 -1.36399e-17 6.13795e-17 
2 1 0.80442 0.573372 0.155411 
1 1 0.916301 -0.376485 -0.136574 
3 1 -0.11188 0.949857 0.291985 
ITEM: TIMESTEP
44000
ITEM: NUMBER OF ATOMS
7
ITEM: BOX BOUNDS pp pp pp
-2.5000000000000000e+01 2.5000000000000000e+01
-2.5000000000000000e+01 2.5000000000000000e+01
-2.5000000000000000e+01 2.5000000000000000e+01
ITEM: ATOMS id type x y z 
6 1 0.102449 -0.948992 -0.298193 
4 1 -0.91251 0.38452 0.139533 
5 1 -0.810061 -0.564472 -0.15866 
7 1 2.79142e-17 -1.39571e-17 6.28069e-17 
2 1 0.810061 0.564472 0.15866 
1 1 0.91251 -0.38452 -0.139533 
3 1 -0.102449 0.948992 0.298193 
ITEM: TIMESTEP
45000
ITEM: NUMBER OF ATOMS
7
ITEM: BOX BOUNDS pp pp pp
-2.5000000000000000e+01 2.5000000000000000e+01
-2.5000000000000000e+01 2.5000000000000000e+01
-2.5000000000000000e+01 2.5000000000000000e+01
ITEM: ATOMS id type x y z 
6 1 0.093025 -0.948003 -0.304363 
4 1 -0.908641 0.392518 0.142479 
5 1 -0.815616 -0.555485 -0.161884 
7 1 2.85486e-17 -1.42743e-17 6.42343e-17 
2 1 0.815616 0.555485 0.161884 
1 1 0.908641 -0.392518 -0.142479 
3 1 -0.093025 0.948003 0.304363 
ITEM: TIMESTEP
46000
ITEM: NUMBER OF ATOMS
7
ITEM: BOX BOUNDS pp pp pp
-2.5000000000000000e+01 2.5000000000000000e+01
-2.5000000000000000e+01 2.5000000000000000e+01
-2.5000000000000000e+01 2.5000000000000000e+01
ITEM: ATOMS id type x y z 
6 1 0.0836088 -0.946891 -0.310494 
4 1 -0.904694 0.400479 0.145411 
5 1 -0.821086 -0.546412 -0.165082 
7 1 2.9183e-17 -1.45915e-17 6.56618e-17 
2 1 0.821086 0.546412 0.165082 
1 1 0.904694 -0.400479 -0.145411 
3 1 -0.0836088 0.946891 0.310494 
ITEM: TIMESTEP
47000
ITEM: NUMBER OF ATOMS
7
ITEM: BOX BOUNDS pp pp pp
-2.5000000000000000e+01 2.5000000000000000e+01
-2.5000000000000000e+01 2.5000000000000000e+01
-2.5000000000000000e+01 2.5000000000000000e+01
ITEM: ATOMS id type x y z 
6 1 0.0742021 -0.945658 -0.316584 
4 1 -0.900669 0.408403 0.14833 
5 1 -0.826467 -0.537255 -0.168254 
7 1 2.98174e-17 -1.49087e-17 6.70892e-17 
2 1 0.826467 0.537255 0.168254 
1 1 0.900669 -0.408403 -0.14833 
3 1 -0.0742021 0.945658 0.316584 
ITEM: TIMESTEP
48000
ITEM: NUMBER OF ATOMS
7
ITEM: BOX BOUNDS pp pp pp
-2.5000000000000000e+01 2.5000000000000000e+01
-2.5000000000000000e+01 2.5000000000000000e+01
-2.5000000000000000e+01 2.5000000000000000e+01
ITEM: ATOMS id type x y z 
6 1 0.0648065 -0.944302 -0.322635 
4 1 -0.896566 0.416289 0.151236 
5 1 -0.83176 -0.528013 -0.171399 
7 1 3.04518e-17 -1.52259e-17 6.85166e-17 
2 1 0.83176 0.528013 0.171399 
1 1 0.896566 -0.416289 -0.151236 
3 1 -0.0648065 0.944302 0.322635 
ITEM: TIMESTEP
49000
ITEM: NUMBER OF ATOMS
7
ITEM: BOX BOUNDS pp pp pp
-2.5000000000000000e+01 2.5000000000000000e+01
-2.5000000000000000e+01 2.5000000000000000e+01
-2.5000000000000000e+01 2.5000000000000000e+01
ITEM: ATOMS id type x y z 
6 1 0.0554235 -0.942826 -0.328644 
4 1 -0.892386 0.424137 0.154128 
5 1 -0.836962 -0.518689 -0.174517 
7 1 3.10862e-17 -1.55431e-17 6.99441e-17 
2 1 0.836962 0.518689 0.174517 
1 1 0.892386 -0.424137 -0.154128 
3 1 -0.0554235 0.942826 0.328644 
ITEM: TIMESTEP
50000
ITEM: NUMBER OF ATOMS
7
ITEM: BOX BOUNDS pp pp pp
-2.5000000000000000e+01 2.5000000000000000e+01
-2.5000000000000000e+01 2.5000000000000000e+01
-2.5000000000000000e+01 2.5000000000000000e+01
ITEM: ATOMS id type x y z 
6 1 0.0460545 -0.94123 -0.334612 
4 1 -0.888128 0.431947 0.157005 
5 1 -0.842073 -0.509283 -0.177607 
7 1 3.17207e-17 -1.58603e-17 7.13715e-17 
2 1 0.842073 0.509283 0.177607 
1 1 0.888128 -0.431947 -0.157005 
3 1 -0.0460545 0.94123 0.334612 
ITEM: TIMESTEP
51000
ITEM: NUMBER OF ATOMS
7
ITEM: BOX BOUNDS pp pp pp
-2.5000000000000000e+01 2.5000000000000000e+01
-2.5000000000000000e+01 2.5000000000000000e+01
-2.5000000000000000e+01 2.5000000000000000e+01
ITEM: ATOMS id type x y z 
6 1 0.0367011 -0.939514 -0.340537 
4 1 -0.883792 0.439719 0.159869 
5 1 -0.847091 -0.499795 -0.180668 
7 1 3.23551e-17 -1.61775e-17 7.27989e-17 
2 1 0.847091 0.499795 0.180668 
1 1 0.883792 -0.439719 -0.159869 
3 1 -0.0367011 0.939514 0.340537 
ITEM: TIMESTEP
52000
ITEM: NUMBER OF ATOMS
7
ITEM: BOX BOUNDS pp pp pp
-2.5000000000000000e+01 2.5000000000000000e+01
-2.5000000000000000e+01 2.5000000000000000e+01
-2.5000000000000000e+01 2.5000000000000000e+01
ITEM: ATOMS id type x y z 
6 1 0.0273646 -0.93768 -0.34642 
4 1 -0.87938 0.447452 0.162719 
5 1 -0.852015 -0.490228 -0.183701 
7 1 3.29895e-17 -1.64947e-17 7.42263e-17 
2 1 0.852015 0.490228 0.183701 
1 1 0.87938 -0.447452 -0.162719 
3 1 -0.0273646 0.93768 0.34642 
ITEM: TIMESTEP
53000
ITEM: NUMBER OF ATOMS
7
ITEM: BOX BOUNDS pp pp pp
-2.5000000000000000e+01 2.5000000000000000e+01
-2.5000000000000000e+01 2.5000000000000000e+01
-2.5000000000000000e+01 2.5000000000000000e+01
ITEM: ATOMS id type x y z 
6 1 0.0180465 -0.935729 -0.352259 
4 1 -0.874891 0.455146 0.165555 
5 1 -0.856844 -0.480583 -0.186704 
7 1 3.36239e-17 -1.68119e-17 7.56538e-17 
2 1 0.856844 0.480583 0.186704 
1 1 0.874891 -0.455146 -0.165555 
3 1 -0.0180465 0.935729 0.352259 
ITEM: TIMESTEP
54000
ITEM: NUMBER OF ATOMS
7
ITEM: BOX BOUNDS pp pp pp
-2.5000000000000000e+01 2.5000000000000000e+01
-2.5000000000000000e+01 2.5000000000000000e+01
-2.5000000000000000e+01 2.5000000000000000e+01
ITEM: ATOMS id type x y z 
6 1 0.00874825 -0.93366 -0.358053 
4 1 -0.870325 0.462801 0.168376 
5 1 -0.861576 -0.470859 -0.189677 
7 1 3.42583e-17 -1.71292e-17 7.70812e-17 
2 1 0.861576 0.470859 0.189677 
1 1 0.870325 -0.462801 -0.168376 
3 1 -0.00874825 0.93366 0.358053 
ITEM: TIMESTEP
55000
ITEM: NUMBER OF ATOMS
7
ITEM: BOX BOUNDS pp pp pp
-2.5000000000000000e+01 2.5000000000000000e+01
-2.5000000000000000e+01 2.5000000000000000e+01
-2.5000000000000000e+01 2.5000000000000000e+01
ITEM: ATOMS id type x y z 
6 1 -0.000528873 -0.931476 -0.363803 
4 1 -0.865682 0.470416 0.171183 
5 1 -0.866211 -0.46106 -0.192621 
7 1 3.48927e-17 -1.74464e-17 7.85086e-17 
2 1 0.866211 0.46106 0.192621 
1 1 0.865682 -0.470416 -0.171183 
3 1 0.000528873 0.931476 0.363803 
ITEM: TIMESTEP
56000
ITEM: NUMBER OF ATOMS
7
ITEM: BOX BOUNDS pp pp pp
-2.5000000000000000e+01 2.5000000000000000e+01
-2.5000000000000000e+01 2.5000000000000000e+01
-2.5000000000000000e+01 2.5000000000000000e+01
ITEM: ATOMS id type x y z 
6 1 -0.00978345 -0.929176 -0.369508 
4 1 -0.860963 0.477991 0.173975 
5 1 -0.870746 -0.451185 -0.195533 
7 1 3.55271e-17 -1.77636e-17 7.99361e-17 
2 1 0.870746 0.451185 0.195533 
1 1 0.860963 -0.477991 -0.173975 
3 1 0.00978345 0.929176 0.369508 
ITEM: TIMESTEP
57000
ITEM: NUMBER OF ATOMS
7
ITEM: BOX BOUNDS pp pp pp
-2.5000000000000000e+01 2.5000000000000000e+01
-2.5000000000000000e+01 2.5000000000000000e+01
-2.5000000000000000e+01 2.5000000000000000e+01
ITEM: ATOMS id type x y z 
6 1 -0.0190141 -0.926762 -0.375167 
4 1 -0.856167 0.485526 0.176753 
5 1 -0.875182 -0.441236 -0.198414 
7 1 3.61615e-17 -1.80808e-17 8.13635e-17 
2 1 0.875182 0.441236 0.198414 
1 1 0.856167 -0.485526 -0.176753 
3 1 0.0190141 0.926762 0.375167 
ITEM: TIMESTEP
58000
ITEM: NUMBER OF ATOMS
7
ITEM: BOX BOUNDS pp pp pp
-2.5000000000000000e+01 2.5000000000000000e+01
-2.5000000000000000e+01 2.5000000000000000e+01
-2.5000000000000000e+01 2.5000000000000000e+01
ITEM: ATOMS id type x y z 
6 1 -0.0282196 -0.924235 -0.38078 
4 1 -0.851296 0.493021 0.179517 
5 1 -0.879515 -0.431214 -0.201263 
7 1 3.6796e-17 -1.8398e-17 8.27909e-17 
2 1 0.879515 0.431214 0.201263 
1 1 0.851296 -0.493021 -0.179517 
3 1 0.0282196 0.924235 0.38078 
ITEM: TIMESTEP
59000
ITEM: NUMBER OF ATOMS
7
ITEM: BOX BOUNDS pp pp pp
-2.5000000000000000e+01 2.5000000000000000e+01
-2.5000000000000000e+01 2.5000000000000000e+01
-2.5000000000000000e+01 2.5000000000000000e+01
ITEM: ATOMS id type x y z 
6 1 -0.0373986 -0.921596 -0.386345 
4 1 -0.846348 0.500474 0.182265 
5 1 -0.883747 -0.421121 -0.20408 
7 1 3.74304e-17 -1.87152e-17 8.42183e-17 
2 1 0.883747 0.421121 0.20408 
1 1 0.846348 -0.500474 -0.182265 
3 1 0.0373986 0.921596 0.386345 
ITEM: TIMESTEP
60000
ITEM: NUMBER OF ATOMS
7
ITEM: BOX BOUNDS pp pp pp
-2.5000000000000000e+01 2.5000000000000000e+01
-2.5000000000000000e+01 2.5000000000000000e+01
-2.5000000000000000e+01 2.5000000000000000e+01
ITEM: ATOMS id type x y z 
6 1 -0.0465498 -0.918845 -0.391864 
4 1 -0.841324 0.507887 0.184999 
5 1 -0.887874 -0.410958 -0.206865 
7 1 3.80648e-17 -1.90324e-17 8.56458e-17 
2 1 0.887874 0.410958 0.206865 
1 1 0.841324 -0.507887 -0.184999 
3 1 0.0465498 0.918845 0.391864 
ITEM: TIMESTEP
61000
ITEM: NUMBER OF ATOMS
7
ITEM: BOX BOUNDS pp pp pp
-2.5000000000000000e+01 2.5000000000000000e+01
-2.5000000000000000e+01 2.5000000000000000e+01
-2.5000000000000000e+01 2.5000000000000000e+01
ITEM: ATOMS id type x y z 
6 1 -0.055672 -0.915984 -0.397334 
4 1 -0.836225 0.515258 0.187718 
5 1 -0.891897 -0.400726 -0.209616 
7 1 3.86992e-17 -1.93496e-17 8.70732e-17 
2 1 0.891897 0.400726 0.209616 
1 1 0.836225 -0.515258 -0.187718 
3 1 0.055672 0.915984 0.397334 
ITEM: TIMESTEP
62000
ITEM: NUMBER OF ATOMS
7
ITEM: BOX BOUNDS pp pp pp
-2.5000000000000000e+01 2.5000000000000000e+01