ITEM: TIMESTEP
0
ITEM: NUMBER OF ATOMS
7
ITEM: BOX BOUNDS pp pp pp
-2.5000000000000000e+01 2.5000000000000000e+01
-2.5000000000000000e+01 2.5000000000000000e+01
-2.5000000000000000e+01 2.5000000000000000e+01
ITEM: ATOMS id type x y z mux muy muz
5 1 -0.5 -0.866025 0 0 0 0
6 1 0.5 -0.866025 0 0 0 0
4 1 -1 0 0 0 0 0
7 1 0 0 0 0.0 0.0 1.0
1 1 1 0 0 0 0 0
2 1 0.5 0.866025 0 0 0 0
3 1 -0.5 0.866025 0 0 0 0
ITEM: TIMESTEP
1000
ITEM: NUMBER OF ATOMS
7
ITEM: BOX BOUNDS pp pp pp
-2.5000000000000000e+01 2.5000000000000000e+01
-2.5000000000000000e+01 2.5000000000000000e+01
-2.5000000000000000e+01 2.5000000000000000e+01
ITEM: ATOMS id type x y z mux muy muz
5 1 -0.50808 -0.861302 -0.00378744 0 0 0
6 1 0.491871 -0.870639 -0.00708078 0 0 0
4 1 -0.999951 0.00933779 0.00329334 0 0 0
7 1 6.34413e-19 -3.17207e-19 1.42743e-18 0.003263968013175784 -0.006290097381103475 0.9999748902786234
1 1 0.999951 -0.00933779 -0.00329334 0 0 0
2 1 0.50808 0.861302 0.00378744 0 0 0
3 1 -0.491871 0.870639 0.00708078 0 0 0
ITEM: TIMESTEP
2000
ITEM: NUMBER OF ATOMS
7
ITEM: BOX BOUNDS pp pp pp
-2.5000000000000000e+01 2.5000000000000000e+01
-2.5000000000000000e+01 2.5000000000000000e+01
-2.5000000000000000e+01 2.5000000000000000e+01
ITEM: ATOMS id type x y z mux muy muz
5 1 -0.516128 -0.856478 -0.00757436 0 0 0
6 1 0.483676 -0.875132 -0.0141606 0 0 0
4 1 -0.999804 0.0186543 0.00658623 0 0 0
7 1 1.26883e-18 -6.34413e-19 2.85486e-18 0.00640975093534696 -0.01264006883342152 0.9998995668330062
1 1 0.999804 -0.0186543 -0.00658623 0 0 0
2 1 0.516128 0.856478 0.00757436 0 0 0
3 1 -0.483676 0.875132 0.0141606 0 0 0
ITEM: TIMESTEP
3000
ITEM: NUMBER OF ATOMS
7
ITEM: BOX BOUNDS pp pp pp
-2.5000000000000000e+01 2.5000000000000000e+01
-2.5000000000000000e+01 2.5000000000000000e+01
-2.5000000000000000e+01 2.5000000000000000e+01
ITEM: ATOMS id type x y z mux muy muz
5 1 -0.524143 -0.851555 -0.0113602 0 0 0
6 1 0.475418 -0.879504 -0.0212384 0 0 0
4 1 -0.999561 0.0279488 0.00987822 0 0 0
7 1 1.90324e-18 -9.5162e-19 4.28229e-18 0.009436077102531592 -0.01904738781245424 0.9997740532072421
1 1 0.999561 -0.0279488 -0.00987822 0 0 0
2 1 0.524143 0.851555 0.0113602 0 0 0
3 1 -0.475418 0.879504 0.0212384 0 0 0
ITEM: TIMESTEP
4000
ITEM: NUMBER OF ATOMS
7
ITEM: BOX BOUNDS pp pp pp
-2.5000000000000000e+01 2.5000000000000000e+01
-2.5000000000000000e+01 2.5000000000000000e+01
-2.5000000000000000e+01 2.5000000000000000e+01
ITEM: ATOMS id type x y z mux muy muz
5 1 -0.532123 -0.846532 -0.0151445 0 0 0
6 1 0.467097 -0.883752 -0.0283134 0 0 0
4 1 -0.99922 0.0372208 0.0131689 0 0 0
7 1 2.53765e-18 -1.26883e-18 5.70972e-18 0.012341738694362232 -0.02550949646358599 0.9995983928939534
1 1 0.99922 -0.0372208 -0.0131689 0 0 0
2 1 0.532123 0.846532 0.0151445 0 0 0
3 1 -0.467097 0.883752 0.0283134 0 0 0
ITEM: TIMESTEP
5000
ITEM: NUMBER OF ATOMS
7
ITEM: BOX BOUNDS pp pp pp
-2.5000000000000000e+01 2.5000000000000000e+01
-2.5000000000000000e+01 2.5000000000000000e+01
-2.5000000000000000e+01 2.5000000000000000e+01
ITEM: ATOMS id type x y z mux muy muz
5 1 -0.540068 -0.841408 -0.0189267 0 0 0
6 1 0.458716 -0.887878 -0.0353844 0 0 0
4 1 -0.998784 0.0464697 0.0164578 0 0 0
7 1 3.17207e-18 -1.58603e-18 7.13715e-18 0.015125562065359451 -0.03202381619473134 0.9993726494999415
1 1 0.998784 -0.0464697 -0.0164578 0 0 0
2 1 0.540068 0.841408 0.0189267 0 0 0
3 1 -0.458716 0.887878 0.0353844 0 0 0
ITEM: TIMESTEP
6000
ITEM: NUMBER OF ATOMS
7
ITEM: BOX BOUNDS pp pp pp
-2.5000000000000000e+01 2.5000000000000000e+01
-2.5000000000000000e+01 2.5000000000000000e+01
-2.5000000000000000e+01 2.5000000000000000e+01
ITEM: ATOMS id type x y z mux muy muz
5 1 -0.547977 -0.836185 -0.0227061 0 0 0
6 1 0.450275 -0.89188 -0.0424506 0 0 0
4 1 -0.998253 0.055695 0.0197445 0 0 0
7 1 3.80648e-18 -1.90324e-18 8.56458e-18 0.0177864380171036 -0.03858773827835059 0.9990969067499034
1 1 0.998253 -0.055695 -0.0197445 0 0 0
2 1 0.547977 0.836185 0.0227061 0 0 0
3 1 -0.450275 0.89188 0.0424506 0 0 0
ITEM: TIMESTEP
7000
ITEM: NUMBER OF ATOMS
7
ITEM: BOX BOUNDS pp pp pp
-2.5000000000000000e+01 2.5000000000000000e+01
-2.5000000000000000e+01 2.5000000000000000e+01
-2.5000000000000000e+01 2.5000000000000000e+01
ITEM: ATOMS id type x y z mux muy muz
5 1 -0.555849 -0.830861 -0.0264824 0 0 0
6 1 0.441777 -0.895757 -0.049511 0 0 0
4 1 -0.997626 0.0648959 0.0230286 0 0 0
7 1 4.44089e-18 -2.22045e-18 9.99201e-18 0.020323282048714055 -0.04519864439410644 0.9987712684852841
1 1 0.997626 -0.0648959 -0.0230286 0 0 0
2 1 0.555849 0.830861 0.0264824 0 0 0
3 1 -0.441777 0.895757 0.049511 0 0 0
ITEM: TIMESTEP
8000
ITEM: NUMBER OF ATOMS
7
ITEM: BOX BOUNDS pp pp pp
-2.5000000000000000e+01 2.5000000000000000e+01
-2.5000000000000000e+01 2.5000000000000000e+01
-2.5000000000000000e+01 2.5000000000000000e+01
ITEM: ATOMS id type x y z mux muy muz
5 1 -0.563682 -0.825438 -0.0302549 0 0 0
6 1 0.433224 -0.89951 -0.0565645 0 0 0
4 1 -0.996906 0.0740721 0.0263097 0 0 0
7 1 5.07531e-18 -2.53765e-18 1.14194e-17 0.022735084969041336 -0.05185389701917338 0.9983958580019127
1 1 0.996906 -0.0740721 -0.0263097 0 0 0
2 1 0.563682 0.825438 0.0302549 0 0 0
3 1 -0.433224 0.89951 0.0565645 0 0 0
ITEM: TIMESTEP
9000
ITEM: NUMBER OF ATOMS
7
ITEM: BOX BOUNDS pp pp pp
-2.5000000000000000e+01 2.5000000000000000e+01
-2.5000000000000000e+01 2.5000000000000000e+01
-2.5000000000000000e+01 2.5000000000000000e+01
ITEM: ATOMS id type x y z mux muy muz
5 1 -0.571476 -0.819913 -0.034023 0 0 0
6 1 0.424616 -0.903136 -0.0636103 0 0 0
4 1 -0.996092 0.083223 0.0295873 0 0 0
7 1 5.70972e-18 -2.85486e-18 1.28469e-17 0.0250208722961233 -0.058550840463059736 0.9979708187269856
1 1 0.996092 -0.083223 -0.0295873 0 0 0
2 1 0.571476 0.819913 0.034023 0 0 0
3 1 -0.424616 0.903136 0.0636103 0 0 0
ITEM: TIMESTEP
10000
ITEM: NUMBER OF ATOMS
7
ITEM: BOX BOUNDS pp pp pp
-2.5000000000000000e+01 2.5000000000000000e+01
-2.5000000000000000e+01 2.5000000000000000e+01
-2.5000000000000000e+01 2.5000000000000000e+01
ITEM: ATOMS id type x y z mux muy muz
5 1 -0.579229 -0.814289 -0.0377863 0 0 0
6 1 0.415955 -0.906637 -0.0706474 0 0 0
4 1 -0.995184 0.0923481 0.0328612 0 0 0
7 1 6.34413e-18 -3.17207e-18 1.42743e-17 0.02717971546674635 -0.06528679098423466 0.9974963147752112
1 1 0.995184 -0.0923481 -0.0328612 0 0 0
2 1 0.579229 0.814289 0.0377863 0 0 0
3 1 -0.415955 0.906637 0.0706474 0 0 0
ITEM: TIMESTEP
11000
ITEM: NUMBER OF ATOMS
7
ITEM: BOX BOUNDS pp pp pp
-2.5000000000000000e+01 2.5000000000000000e+01
-2.5000000000000000e+01 2.5000000000000000e+01
-2.5000000000000000e+01 2.5000000000000000e+01
ITEM: ATOMS id type x y z mux muy muz
5 1 -0.586941 -0.808563 -0.041544 0 0 0
6 1 0.407244 -0.91001 -0.0776748 0 0 0
4 1 -0.994185 0.101447 0.0361308 0 0 0
7 1 6.97854e-18 -3.48927e-18 1.57017e-17 0.029210750817160853 -0.07205906786402326 0.996972528596082
1 1 0.994185 -0.101447 -0.0361308 0 0 0
2 1 0.586941 0.808563 0.041544 0 0 0
3 1 -0.407244 0.91001 0.0776748 0 0 0
ITEM: TIMESTEP
12000
ITEM: NUMBER OF ATOMS
7
ITEM: BOX BOUNDS pp pp pp
-2.5000000000000000e+01 2.5000000000000000e+01
-2.5000000000000000e+01 2.5000000000000000e+01
-2.5000000000000000e+01 2.5000000000000000e+01
ITEM: ATOMS id type x y z mux muy muz
5 1 -0.594609 -0.802738 -0.0452958 0 0 0
6 1 0.398484 -0.913257 -0.0846916 0 0 0
4 1 -0.993093 0.110519 0.0393958 0 0 0
7 1 7.61296e-18 -3.80648e-18 1.71292e-17 0.031113161730590526 -0.07886496330995764 0.9963996631519125
1 1 0.993093 -0.110519 -0.0393958 0 0 0
2 1 0.594609 0.802738 0.0452958 0 0 0
3 1 -0.398484 0.913257 0.0846916 0 0 0
ITEM: TIMESTEP
13000
ITEM: NUMBER OF ATOMS
7
ITEM: BOX BOUNDS pp pp pp
-2.5000000000000000e+01 2.5000000000000000e+01
-2.5000000000000000e+01 2.5000000000000000e+01
-2.5000000000000000e+01 2.5000000000000000e+01
ITEM: ATOMS id type x y z mux muy muz
5 1 -0.602234 -0.796812 -0.0490409 0 0 0
6 1 0.389676 -0.916376 -0.0916968 0 0 0
4 1 -0.99191 0.119564 0.0426558 0 0 0
7 1 8.24737e-18 -4.12369e-18 1.85566e-17 0.03288618683792268 -0.08570176383326603 0.9957779403015153
1 1 0.99191 -0.119564 -0.0426558 0 0 0
2 1 0.602234 0.796812 0.0490409 0 0 0
3 1 -0.389676 0.916376 0.0916968 0 0 0
ITEM: TIMESTEP
14000
ITEM: NUMBER OF ATOMS
7
ITEM: BOX BOUNDS pp pp pp
-2.5000000000000000e+01 2.5000000000000000e+01
-2.5000000000000000e+01 2.5000000000000000e+01
-2.5000000000000000e+01 2.5000000000000000e+01
ITEM: ATOMS id type x y z mux muy muz
5 1 -0.609814 -0.790786 -0.0527789 0 0 0
6 1 0.380822 -0.919367 -0.0986894 0 0 0
4 1 -0.990636 0.128581 0.0459105 0 0 0
7 1 8.88178e-18 -4.44089e-18 1.9984e-17 0.03452910085532862 -0.0925667306350261 0.9951076030126917
1 1 0.990636 -0.128581 -0.0459105 0 0 0
2 1 0.609814 0.790786 0.0527789 0 0 0
3 1 -0.380822 0.919367 0.0986894 0 0 0
ITEM: TIMESTEP
15000
ITEM: NUMBER OF ATOMS
7
ITEM: BOX BOUNDS pp pp pp
-2.5000000000000000e+01 2.5000000000000000e+01
-2.5000000000000000e+01 2.5000000000000000e+01
-2.5000000000000000e+01 2.5000000000000000e+01
ITEM: ATOMS id type x y z mux muy muz
5 1 -0.617347 -0.784659 -0.0565091 0 0 0
6 1 0.371924 -0.922229 -0.105669 0 0 0
4 1 -0.989271 0.13757 0.0491595 0 0 0
7 1 9.5162e-18 -4.7581e-18 2.14114e-17 0.036041245509863276 -0.09945712975498375 0.9943889118262522
1 1 0.989271 -0.13757 -0.0491595 0 0 0
2 1 0.617347 0.784659 0.0565091 0 0 0
3 1 -0.371924 0.922229 0.105669 0 0 0
ITEM: TIMESTEP
16000
ITEM: NUMBER OF ATOMS
7
ITEM: BOX BOUNDS pp pp pp
-2.5000000000000000e+01 2.5000000000000000e+01
-2.5000000000000000e+01 2.5000000000000000e+01
-2.5000000000000000e+01 2.5000000000000000e+01
ITEM: ATOMS id type x y z mux muy muz
5 1 -0.624833 -0.778432 -0.060231 0 0 0
6 1 0.362984 -0.924963 -0.112633 0 0 0
4 1 -0.987817 0.146531 0.0524025 0 0 0
7 1 1.01506e-17 -5.07531e-18 2.28389e-17 0.037422008934993506 -0.10637020318487836 0.9936221480631743
1 1 0.987817 -0.146531 -0.0524025 0 0 0
2 1 0.624833 0.778432 0.060231 0 0 0
3 1 -0.362984 0.924963 0.112633 0 0 0
ITEM: TIMESTEP
17000
ITEM: NUMBER OF ATOMS
7
ITEM: BOX BOUNDS pp pp pp
-2.5000000000000000e+01 2.5000000000000000e+01
-2.5000000000000000e+01 2.5000000000000000e+01
-2.5000000000000000e+01 2.5000000000000000e+01
ITEM: ATOMS id type x y z mux muy muz
5 1 -0.63227 -0.772105 -0.0639439 0 0 0
6 1 0.354004 -0.927567 -0.119583 0 0 0
4 1 -0.986274 0.155463 0.055639 0 0 0
7 1 1.0785e-17 -5.39251e-18 2.42663e-17 0.03867083572325352 -0.11330318940550949 0.9928076116423589
1 1 0.986274 -0.155463 -0.055639 0 0 0
2 1 0.63227 0.772105 0.0639439 0 0 0
3 1 -0.354004 0.927567 0.119583 0 0 0
ITEM: TIMESTEP
18000
ITEM: NUMBER OF ATOMS
7
ITEM: BOX BOUNDS pp pp pp
-2.5000000000000000e+01 2.5000000000000000e+01
-2.5000000000000000e+01 2.5000000000000000e+01
-2.5000000000000000e+01 2.5000000000000000e+01
ITEM: ATOMS id type x y z mux muy muz
5 1 -0.639657 -0.765678 -0.0676473 0 0 0
6 1 0.344984 -0.930043 -0.126516 0 0 0
4 1 -0.984641 0.164365 0.0588687 0 0 0
7 1 1.14194e-17 -5.70972e-18 2.56937e-17 0.039787216983911945 -0.12025332399261776 0.991945621207837
1 1 0.984641 -0.164365 -0.0588687 0 0 0
2 1 0.639657 0.765678 0.0676473 0 0 0
3 1 -0.344984 0.930043 0.126516 0 0 0
ITEM: TIMESTEP
19000
ITEM: NUMBER OF ATOMS
7
ITEM: BOX BOUNDS pp pp pp
-2.5000000000000000e+01 2.5000000000000000e+01
-2.5000000000000000e+01 2.5000000000000000e+01
-2.5000000000000000e+01 2.5000000000000000e+01
ITEM: ATOMS id type x y z mux muy muz
5 1 -0.646994 -0.759151 -0.0713406 0 0 0
6 1 0.335927 -0.932389 -0.133432 0 0 0
4 1 -0.982921 0.173238 0.0620914 0 0 0
7 1 1.20538e-17 -6.02692e-18 2.71212e-17 0.04077069163319669 -0.12721782986511282 0.9910365152042394
1 1 0.982921 -0.173238 -0.0620914 0 0 0
2 1 0.646994 0.759151 0.0713406 0 0 0
3 1 -0.335927 0.932389 0.133432 0 0 0
ITEM: TIMESTEP
20000
ITEM: NUMBER OF ATOMS
7
ITEM: BOX BOUNDS pp pp pp
-2.5000000000000000e+01 2.5000000000000000e+01
-2.5000000000000000e+01 2.5000000000000000e+01
-2.5000000000000000e+01 2.5000000000000000e+01
ITEM: ATOMS id type x y z mux muy muz
5 1 -0.654278 -0.752524 -0.0750233 0 0 0
6 1 0.326835 -0.934605 -0.14033 0 0 0
4 1 -0.981112 0.182081 0.0653067 0 0 0
7 1 1.26883e-17 -6.34413e-18 2.85486e-17 0.04162086526790269 -0.13419391835661726 0.990080651184765
1 1 0.981112 -0.182081 -0.0653067 0 0 0
2 1 0.654278 0.752524 0.0750233 0 0 0
3 1 -0.326835 0.934605 0.14033 0 0 0
ITEM: TIMESTEP
21000
ITEM: NUMBER OF ATOMS
7
ITEM: BOX BOUNDS pp pp pp
-2.5000000000000000e+01 2.5000000000000000e+01
-2.5000000000000000e+01 2.5000000000000000e+01
-2.5000000000000000e+01 2.5000000000000000e+01
ITEM: ATOMS id type x y z mux muy muz
5 1 -0.661508 -0.745798 -0.0786946 0 0 0
6 1 0.317709 -0.936691 -0.147209 0 0 0
4 1 -0.979217 0.190894 0.0685142 0 0 0
7 1 1.33227e-17 -6.66134e-18 2.9976e-17 0.04233740155308011 -0.14117880933164373 0.989078403477415
1 1 0.979217 -0.190894 -0.0685142 0 0 0
2 1 0.661508 0.745798 0.0786946 0 0 0
3 1 -0.317709 0.936691 0.147209 0 0 0
ITEM: TIMESTEP
22000
ITEM: NUMBER OF ATOMS
7
ITEM: BOX BOUNDS pp pp pp
-2.5000000000000000e+01 2.5000000000000000e+01
-2.5000000000000000e+01 2.5000000000000000e+01
-2.5000000000000000e+01 2.5000000000000000e+01
ITEM: ATOMS id type x y z mux muy muz
5 1 -0.668684 -0.738972 -0.0823541 0 0 0
6 1 0.308551 -0.938648 -0.154068 0 0 0
4 1 -0.977234 0.199675 0.0717137 0 0 0
7 1 1.39571e-17 -6.97854e-18 3.14035e-17 0.042919989880056714 -0.14816971271646012 0.9880301668988741
1 1 0.977234 -0.199675 -0.0717137 0 0 0
2 1 0.668684 0.738972 0.0823541 0 0 0
3 1 -0.308551 0.938648 0.154068 0 0 0
ITEM: TIMESTEP
23000
ITEM: NUMBER OF ATOMS
7
ITEM: BOX BOUNDS pp pp pp
-2.5000000000000000e+01 2.5000000000000000e+01
-2.5000000000000000e+01 2.5000000000000000e+01
-2.5000000000000000e+01 2.5000000000000000e+01
ITEM: ATOMS id type x y z mux muy muz
5 1 -0.675803 -0.732048 -0.0860011 0 0 0
6 1 0.299363 -0.940474 -0.160906 0 0 0
4 1 -0.975166 0.208426 0.0749048 0 0 0
7 1 1.45915e-17 -7.29575e-18 3.28309e-17 0.04336840897829717 -0.15516383780828286 0.9869363528309695
1 1 0.975166 -0.208426 -0.0749048 0 0 0
2 1 0.675803 0.732048 0.0860011 0 0 0
3 1 -0.299363 0.940474 0.160906 0 0 0
ITEM: TIMESTEP
24000
ITEM: NUMBER OF ATOMS
7
ITEM: BOX BOUNDS pp pp pp
-2.5000000000000000e+01 2.5000000000000000e+01
-2.5000000000000000e+01 2.5000000000000000e+01
-2.5000000000000000e+01 2.5000000000000000e+01
ITEM: ATOMS id type x y z mux muy muz
5 1 -0.682865 -0.725025 -0.089635 0 0 0
6 1 0.290146 -0.94217 -0.167722 0 0 0
4 1 -0.973011 0.217146 0.0780873 0 0 0
7 1 1.52259e-17 -7.61296e-18 3.42583e-17 0.043682451905310275 -0.16215838572688357 0.9857973936534785
1 1 0.973011 -0.217146 -0.0780873 0 0 0
2 1 0.682865 0.725025 0.089635 0 0 0
3 1 -0.290146 0.94217 0.167722 0 0 0
ITEM: TIMESTEP
25000
ITEM: NUMBER OF ATOMS
7
ITEM: BOX BOUNDS pp pp pp
-2.5000000000000000e+01 2.5000000000000000e+01
-2.5000000000000000e+01 2.5000000000000000e+01
-2.5000000000000000e+01 2.5000000000000000e+01
ITEM: ATOMS id type x y z mux muy muz
5 1 -0.689869 -0.717903 -0.0932553 0 0 0
6 1 0.280902 -0.943736 -0.174516 0 0 0
4 1 -0.970771 0.225833 0.0812609 0 0 0
7 1 1.58603e-17 -7.93016e-18 3.56857e-17 0.043862002856971394 -0.169150557770188 0.9846137382300785
1 1 0.970771 -0.225833 -0.0812609 0 0 0
2 1 0.689869 0.717903 0.0932553 0 0 0
3 1 -0.280902 0.943736 0.174516 0 0 0
ITEM: TIMESTEP
26000
ITEM: NUMBER OF ATOMS
7
ITEM: BOX BOUNDS pp pp pp
-2.5000000000000000e+01 2.5000000000000000e+01
-2.5000000000000000e+01 2.5000000000000000e+01
-2.5000000000000000e+01 2.5000000000000000e+01
ITEM: ATOMS id type x y z mux muy muz
6 1 0.271633 -0.945172 -0.181287 0 0 0
4 1 -0.968446 0.234489 0.0844253 0 0 0
5 1 -0.696812 -0.710683 -0.0968613 0 0 0
7 1 1.64947e-17 -8.24737e-18 3.71132e-17 0.04390697348369267 -0.1761375672162231 0.983385852600419
2 1 0.696812 0.710683 0.0968613 0 0 0
1 1 0.968446 -0.234489 -0.0844253 0 0 0
3 1 -0.271633 0.945172 0.181287 0 0 0
ITEM: TIMESTEP
27000
ITEM: NUMBER OF ATOMS
7
ITEM: BOX BOUNDS pp pp pp
-2.5000000000000000e+01 2.5000000000000000e+01
-2.5000000000000000e+01 2.5000000000000000e+01
-2.5000000000000000e+01 2.5000000000000000e+01
ITEM: ATOMS id type x y z mux muy muz
6 1 0.262341 -0.946478 -0.188033 0 0 0
4 1 -0.966036 0.243113 0.0875802 0 0 0
5 1 -0.703695 -0.703365 -0.100452 0 0 0
7 1 1.71292e-17 -8.56458e-18 3.85406e-17 0.043817350241001585 -0.18311662066506867 0.9821142209814814
2 1 0.703695 0.703365 0.100452 0 0 0
1 1 0.966036 -0.243113 -0.0875802 0 0 0
3 1 -0.262341 0.946478 0.188033 0 0 0
ITEM: TIMESTEP
28000
ITEM: NUMBER OF ATOMS
7
ITEM: BOX BOUNDS pp pp pp
-2.5000000000000000e+01 2.5000000000000000e+01
-2.5000000000000000e+01 2.5000000000000000e+01
-2.5000000000000000e+01 2.5000000000000000e+01
ITEM: ATOMS id type x y z mux muy muz
6 1 0.253028 -0.947654 -0.194753 0 0 0
4 1 -0.963542 0.251704 0.0907253 0 0 0
5 1 -0.710515 -0.69595 -0.104028 0 0 0
7 1 1.77636e-17 -8.88178e-18 3.9968e-17 0.043593148522214284 -0.190084937447603 0.9807993443908192
2 1 0.710515 0.69595 0.104028 0 0 0
1 1 0.963542 -0.251704 -0.0907253 0 0 0
3 1 -0.253028 0.947654 0.194753 0 0 0
ITEM: TIMESTEP
29000
ITEM: NUMBER OF ATOMS
7
ITEM: BOX BOUNDS pp pp pp
-2.5000000000000000e+01 2.5000000000000000e+01
-2.5000000000000000e+01 2.5000000000000000e+01
-2.5000000000000000e+01 2.5000000000000000e+01
ITEM: ATOMS id type x y z mux muy muz
6 1 0.243694 -0.9487 -0.201448 0 0 0
4 1 -0.960965 0.260262 0.0938604 0 0 0
5 1 -0.717271 -0.688438 -0.107588 0 0 0
7 1 1.8398e-17 -9.19899e-18 4.13955e-17 0.0432344521449701 -0.19703973055171298 0.9794417423878933
2 1 0.717271 0.688438 0.107588 0 0 0
1 1 0.960965 -0.260262 -0.0938604 0 0 0
3 1 -0.243694 0.9487 0.201448 0 0 0
ITEM: TIMESTEP
30000
ITEM: NUMBER OF ATOMS
7
ITEM: BOX BOUNDS pp pp pp
-2.5000000000000000e+01 2.5000000000000000e+01
-2.5000000000000000e+01 2.5000000000000000e+01
-2.5000000000000000e+01 2.5000000000000000e+01
ITEM: ATOMS id type x y z mux muy muz
6 1 0.234342 -0.949616 -0.208116 0 0 0
4 1 -0.958304 0.268787 0.0969853 0 0 0
5 1 -0.723962 -0.680829 -0.111131 0 0 0
7 1 1.90324e-17 -9.5162e-18 4.28229e-17 0.042741401663267536 -0.20397821761816368 0.9780419517184202
2 1 0.723962 0.680829 0.111131 0 0 0
1 1 0.958304 -0.268787 -0.0969853 0 0 0
3 1 -0.234342 0.949616 0.208116 0 0 0
ITEM: TIMESTEP
31000
ITEM: NUMBER OF ATOMS
7
ITEM: BOX BOUNDS pp pp pp
-2.5000000000000000e+01 2.5000000000000000e+01
-2.5000000000000000e+01 2.5000000000000000e+01
-2.5000000000000000e+01 2.5000000000000000e+01
ITEM: ATOMS id type x y z mux muy muz
6 1 0.224974 -0.950403 -0.214756 0 0 0
4 1 -0.955561 0.277279 0.1001 0 0 0
5 1 -0.730587 -0.673124 -0.114657 0 0 0
7 1 1.96668e-17 -9.8334e-18 4.42503e-17 0.04211418648619299 -0.2108976211339647 0.9766005266723141
2 1 0.730587 0.673124 0.114657 0 0 0
1 1 0.955561 -0.277279 -0.1001 0 0 0
3 1 -0.224974 0.950403 0.214756 0 0 0
ITEM: TIMESTEP
32000
ITEM: NUMBER OF ATOMS
7
ITEM: BOX BOUNDS pp pp pp
-2.5000000000000000e+01 2.5000000000000000e+01
-2.5000000000000000e+01 2.5000000000000000e+01
-2.5000000000000000e+01 2.5000000000000000e+01
ITEM: ATOMS id type x y z mux muy muz
6 1 0.215591 -0.951061 -0.221368 0 0 0
4 1 -0.952735 0.285737 0.103203 0 0 0
5 1 -0.737144 -0.665324 -0.118165 0 0 0
7 1 2.03012e-17 -1.01506e-17 4.56777e-17 0.04135305258464605 -0.21779517924199243 0.9751180364145051
2 1 0.737144 0.665324 0.118165 0 0 0
1 1 0.952735 -0.285737 -0.103203 0 0 0
3 1 -0.215591 0.951061 0.221368 0 0 0
ITEM: TIMESTEP
33000
ITEM: NUMBER OF ATOMS
7
ITEM: BOX BOUNDS pp pp pp
-2.5000000000000000e+01 2.5000000000000000e+01
-2.5000000000000000e+01 2.5000000000000000e+01
-2.5000000000000000e+01 2.5000000000000000e+01
ITEM: ATOMS id type x y z mux muy muz
6 1 0.206195 -0.951589 -0.22795 0 0 0
4 1 -0.949826 0.294161 0.106296 0 0 0
5 1 -0.743632 -0.657428 -0.121654 0 0 0
7 1 2.09356e-17 -1.04678e-17 4.71052e-17 0.04045829465756309 -0.22466814587323214 0.9735950650158856
2 1 0.743632 0.657428 0.121654 0 0 0
1 1 0.949826 -0.294161 -0.106296 0 0 0
3 1 -0.206195 0.951589 0.22795 0 0 0
ITEM: TIMESTEP
34000
ITEM: NUMBER OF ATOMS
7
ITEM: BOX BOUNDS pp pp pp
-2.5000000000000000e+01 2.5000000000000000e+01
-2.5000000000000000e+01 2.5000000000000000e+01
-2.5000000000000000e+01 2.5000000000000000e+01
ITEM: ATOMS id type x y z mux muy muz
6 1 0.196787 -0.951989 -0.234502 0 0 0
4 1 -0.946836 0.302551 0.109377 0 0 0
5 1 -0.750049 -0.649438 -0.125125 0 0 0
7 1 2.157e-17 -1.0785e-17 4.85326e-17 0.039430266027520956 -0.23151376216537756 0.972032217598281
2 1 0.750049 0.649438 0.125125 0 0 0
1 1 0.946836 -0.302551 -0.109377 0 0 0
3 1 -0.196787 0.951989 0.234502 0 0 0
ITEM: TIMESTEP
35000
ITEM: NUMBER OF ATOMS
7
ITEM: BOX BOUNDS pp pp pp
-2.5000000000000000e+01 2.5000000000000000e+01
-2.5000000000000000e+01 2.5000000000000000e+01
-2.5000000000000000e+01 2.5000000000000000e+01
ITEM: ATOMS id type x y z mux muy muz
6 1 0.18737 -0.952261 -0.241024 0 0 0
4 1 -0.943765 0.310907 0.112448 0 0 0
5 1 -0.756395 -0.641354 -0.128576 0 0 0
7 1 2.22045e-17 -1.11022e-17 4.996e-17 0.03826936427127388 -0.23832929685900875 0.9704301118663636
2 1 0.756395 0.641354 0.128576 0 0 0
1 1 0.943765 -0.310907 -0.112448 0 0 0
3 1 -0.18737 0.952261 0.241024 0 0 0
ITEM: TIMESTEP
36000
ITEM: NUMBER OF ATOMS
7
ITEM: BOX BOUNDS pp pp pp
-2.5000000000000000e+01 2.5000000000000000e+01
-2.5000000000000000e+01 2.5000000000000000e+01
-2.5000000000000000e+01 2.5000000000000000e+01
ITEM: ATOMS id type x y z mux muy muz
6 1 0.177944 -0.952404 -0.247513 0 0 0
4 1 -0.940612 0.319228 0.115506 0 0 0
5 1 -0.762668 -0.633176 -0.132007 0 0 0
7 1 2.28389e-17 -1.14194e-17 5.13875e-17 0.03697604757255378 -0.24511203588898378 0.968789379467111
2 1 0.762668 0.633176 0.132007 0 0 0
1 1 0.940612 -0.319228 -0.115506 0 0 0
3 1 -0.177944 0.952404 0.247513 0 0 0
ITEM: TIMESTEP
37000
ITEM: NUMBER OF ATOMS
7
ITEM: BOX BOUNDS pp pp pp
-2.5000000000000000e+01 2.5000000000000000e+01
-2.5000000000000000e+01 2.5000000000000000e+01
-2.5000000000000000e+01 2.5000000000000000e+01
ITEM: ATOMS id type x y z mux muy muz
6 1 0.168513 -0.952419 -0.25397 0 0 0
4 1 -0.937379 0.327514 0.118553 0 0 0
5 1 -0.768867 -0.624905 -0.135417 0 0 0
7 1 2.34733e-17 -1.17366e-17 5.28149e-17 0.03555083009183979 -0.2518592547777728 0.9671106732233727
2 1 0.768867 0.624905 0.135417 0 0 0
1 1 0.937379 -0.327514 -0.118553 0 0 0
3 1 -0.168513 0.952419 0.25397 0 0 0
ITEM: TIMESTEP
38000
ITEM: NUMBER OF ATOMS
7
ITEM: BOX BOUNDS pp pp pp
-2.5000000000000000e+01 2.5000000000000000e+01
-2.5000000000000000e+01 2.5000000000000000e+01
-2.5000000000000000e+01 2.5000000000000000e+01
ITEM: ATOMS id type x y z mux muy muz
6 1 0.159076 -0.952308 -0.260393 0 0 0
4 1 -0.934065 0.335765 0.121587 0 0 0
5 1 -0.774989 -0.616542 -0.138806 0 0 0
7 1 2.41077e-17 -1.20538e-17 5.42423e-17 0.03399427005450149 -0.2585682676639979 0.9653946553408617
2 1 0.774989 0.616542 0.138806 0 0 0
1 1 0.934065 -0.335765 -0.121587 0 0 0
3 1 -0.159076 0.952308 0.260393 0 0 0
ITEM: TIMESTEP
39000
ITEM: NUMBER OF ATOMS
7
ITEM: BOX BOUNDS pp pp pp
-2.5000000000000000e+01 2.5000000000000000e+01
-2.5000000000000000e+01 2.5000000000000000e+01
-2.5000000000000000e+01 2.5000000000000000e+01
ITEM: ATOMS id type x y z mux muy muz
6 1 0.149637 -0.952069 -0.266783 0 0 0
4 1 -0.930672 0.343981 0.12461 0 0 0
5 1 -0.781035 -0.608088 -0.142173 0 0 0
7 1 2.47421e-17 -1.23711e-17 5.56698e-17 0.032306983380357895 -0.26523638843191893 0.9636420066998189
2 1 0.781035 0.608088 0.142173 0 0 0
1 1 0.930672 -0.343981 -0.12461 0 0 0
3 1 -0.149637 0.952069 0.266783 0 0 0
ITEM: TIMESTEP
40000
ITEM: NUMBER OF ATOMS
7
ITEM: BOX BOUNDS pp pp pp
-2.5000000000000000e+01 2.5000000000000000e+01
-2.5000000000000000e+01 2.5000000000000000e+01
-2.5000000000000000e+01 2.5000000000000000e+01
ITEM: ATOMS id type x y z mux muy muz
6 1 0.140196 -0.951704 -0.273137 0 0 0
4 1 -0.927198 0.352161 0.12762 0 0 0
5 1 -0.787002 -0.599543 -0.145517 0 0 0
7 1 2.53765e-17 -1.26883e-17 5.70972e-17 0.030489637617814182 -0.27186095142757594 0.9618534218303888
2 1 0.787002 0.599543 0.145517 0 0 0
1 1 0.927198 -0.352161 -0.12762 0 0 0
3 1 -0.140196 0.951704 0.273137 0 0 0
ITEM: TIMESTEP
41000
ITEM: NUMBER OF ATOMS
7
ITEM: BOX BOUNDS pp pp pp
-2.5000000000000000e+01 2.5000000000000000e+01
-2.5000000000000000e+01 2.5000000000000000e+01
-2.5000000000000000e+01 2.5000000000000000e+01
ITEM: ATOMS id type x y z mux muy muz
6 1 0.130755 -0.951214 -0.279457 0 0 0
4 1 -0.923645 0.360305 0.130618 0 0 0
5 1 -0.79289 -0.590908 -0.148839 0 0 0
7 1 2.60109e-17 -1.30055e-17 5.85246e-17 0.0285429496515028 -0.2784393119658416 0.9600296086981798
2 1 0.79289 0.590908 0.148839 0 0 0
1 1 0.923645 -0.360305 -0.130618 0 0 0
3 1 -0.130755 0.951214 0.279457 0 0 0
ITEM: TIMESTEP
42000
ITEM: NUMBER OF ATOMS
7
ITEM: BOX BOUNDS pp pp pp
-2.5000000000000000e+01 2.5000000000000000e+01
-2.5000000000000000e+01 2.5000000000000000e+01
-2.5000000000000000e+01 2.5000000000000000e+01
ITEM: ATOMS id type x y z mux muy muz
6 1 0.121316 -0.950597 -0.285739 0 0 0
4 1 -0.920012 0.368413 0.133602 0 0 0
5 1 -0.798696 -0.582184 -0.152137 0 0 0
7 1 2.66454e-17 -1.33227e-17 5.9952e-17 0.02646769193385158 -0.2849688462981156 0.9581712884047483
2 1 0.798696 0.582184 0.152137 0 0 0
1 1 0.920012 -0.368413 -0.133602 0 0 0
3 1 -0.121316 0.950597 0.285739 0 0 0
ITEM: TIMESTEP
43000
ITEM: NUMBER OF ATOMS
7
ITEM: BOX BOUNDS pp pp pp
-2.5000000000000000e+01 2.5000000000000000e+01
-2.5000000000000000e+01 2.5000000000000000e+01
-2.5000000000000000e+01 2.5000000000000000e+01
ITEM: ATOMS id type x y z mux muy muz
6 1 0.11188 -0.949857 -0.291985 0 0 0
4 1 -0.916301 0.376485 0.136574 0 0 0
5 1 -0.80442 -0.573372 -0.155411 0 0 0
7 1 2.72798e-17 -1.36399e-17 6.13795e-17 0.02426468600177492 -0.29144693367373603 0.9562792007909677
2 1 0.80442 0.573372 0.155411 0 0 0
1 1 0.916301 -0.376485 -0.136574 0 0 0
3 1 -0.11188 0.949857 0.291985 0 0 0
ITEM: TIMESTEP
44000
ITEM: NUMBER OF ATOMS
7
ITEM: BOX BOUNDS pp pp pp
-2.5000000000000000e+01 2.5000000000000000e+01
-2.5000000000000000e+01 2.5000000000000000e+01
-2.5000000000000000e+01 2.5000000000000000e+01
ITEM: ATOMS id type x y z mux muy muz
6 1 0.102449 -0.948992 -0.298193 0 0 0
4 1 -0.91251 0.38452 0.139533 0 0 0
5 1 -0.810061 -0.564472 -0.15866 0 0 0
7 1 2.79142e-17 -1.39571e-17 6.28069e-17 0.0219348040003301 -0.29787099519807037 0.9543540928780984
2 1 0.810061 0.564472 0.15866 0 0 0
1 1 0.91251 -0.38452 -0.139533 0 0 0
3 1 -0.102449 0.948992 0.298193 0 0 0
ITEM: TIMESTEP
45000
ITEM: NUMBER OF ATOMS
7
ITEM: BOX BOUNDS pp pp pp
-2.5000000000000000e+01 2.5000000000000000e+01
-2.5000000000000000e+01 2.5000000000000000e+01
-2.5000000000000000e+01 2.5000000000000000e+01
ITEM: ATOMS id type x y z mux muy muz
6 1 0.093025 -0.948003 -0.304363 0 0 0
4 1 -0.908641 0.392518 0.142479 0 0 0
5 1 -0.815616 -0.555485 -0.161884 0 0 0
7 1 2.85486e-17 -1.42743e-17 6.42343e-17 0.01947897048241011 -0.3042384556340052 0.9523967302665318
2 1 0.815616 0.555485 0.161884 0 0 0
1 1 0.908641 -0.392518 -0.142479 0 0 0
3 1 -0.093025 0.948003 0.304363 0 0 0
ITEM: TIMESTEP
46000
ITEM: NUMBER OF ATOMS
7
ITEM: BOX BOUNDS pp pp pp
-2.5000000000000000e+01 2.5000000000000000e+01
-2.5000000000000000e+01 2.5000000000000000e+01
-2.5000000000000000e+01 2.5000000000000000e+01
ITEM: ATOMS id type x y z mux muy muz
6 1 0.0836088 -0.946891 -0.310494 0 0 0
4 1 -0.904694 0.400479 0.145411 0 0 0
5 1 -0.821086 -0.546412 -0.165082 0 0 0
7 1 2.9183e-17 -1.45915e-17 6.56618e-17 0.01689815928522799 -0.3105467731642996 0.9504078881669766
2 1 0.821086 0.546412 0.165082 0 0 0
1 1 0.904694 -0.400479 -0.145411 0 0 0
3 1 -0.0836088 0.946891 0.310494 0 0 0
ITEM: TIMESTEP
47000
ITEM: NUMBER OF ATOMS
7
ITEM: BOX BOUNDS pp pp pp
-2.5000000000000000e+01 2.5000000000000000e+01
-2.5000000000000000e+01 2.5000000000000000e+01
-2.5000000000000000e+01 2.5000000000000000e+01
ITEM: ATOMS id type x y z mux muy muz
6 1 0.0742021 -0.945658 -0.316584 0 0 0
4 1 -0.900669 0.408403 0.14833 0 0 0
5 1 -0.826467 -0.537255 -0.168254 0 0 0
7 1 2.98174e-17 -1.49087e-17 6.70892e-17 0.014193392156541876 -0.31679342080107925 0.9483883572441412
2 1 0.826467 0.537255 0.168254 0 0 0
1 1 0.900669 -0.408403 -0.14833 0 0 0
3 1 -0.0742021 0.945658 0.316584 0 0 0
ITEM: TIMESTEP
48000
ITEM: NUMBER OF ATOMS
7
ITEM: BOX BOUNDS pp pp pp
-2.5000000000000000e+01 2.5000000000000000e+01
-2.5000000000000000e+01 2.5000000000000000e+01
-2.5000000000000000e+01 2.5000000000000000e+01
ITEM: ATOMS id type x y z mux muy muz
6 1 0.0648065 -0.944302 -0.322635 0 0 0
4 1 -0.896566 0.416289 0.151236 0 0 0
5 1 -0.83176 -0.528013 -0.171399 0 0 0
7 1 3.04518e-17 -1.52259e-17 6.85166e-17 0.011365743783503357 -0.32297590564476325 0.9463389372952971
2 1 0.83176 0.528013 0.171399 0 0 0
1 1 0.896566 -0.416289 -0.151236 0 0 0
3 1 -0.0648065 0.944302 0.322635 0 0 0
ITEM: TIMESTEP
49000
ITEM: NUMBER OF ATOMS
7
ITEM: BOX BOUNDS pp pp pp
-2.5000000000000000e+01 2.5000000000000000e+01
-2.5000000000000000e+01 2.5000000000000000e+01
-2.5000000000000000e+01 2.5000000000000000e+01
ITEM: ATOMS id type x y z mux muy muz
6 1 0.0554235 -0.942826 -0.328644 0 0 0
4 1 -0.892386 0.424137 0.154128 0 0 0
5 1 -0.836962 -0.518689 -0.174517 0 0 0
7 1 3.10862e-17 -1.55431e-17 6.99441e-17 0.008416338557517444 -0.3290917601578228 0.9442604400489896
2 1 0.836962 0.518689 0.174517 0 0 0
1 1 0.892386 -0.424137 -0.154128 0 0 0
3 1 -0.0554235 0.942826 0.328644 0 0 0
ITEM: TIMESTEP
50000
ITEM: NUMBER OF ATOMS
7
ITEM: BOX BOUNDS pp pp pp
-2.5000000000000000e+01 2.5000000000000000e+01
-2.5000000000000000e+01 2.5000000000000000e+01
-2.5000000000000000e+01 2.5000000000000000e+01
ITEM: ATOMS id type x y z mux muy muz
6 1 0.0460545 -0.94123 -0.334612 0 0 0
4 1 -0.888128 0.431947 0.157005 0 0 0
5 1 -0.842073 -0.509283 -0.177607 0 0 0
7 1 3.17207e-17 -1.58603e-17 7.13715e-17 0.005346344682878201 -0.3351385428727174 0.9421536889911768
2 1 0.842073 0.509283 0.177607 0 0 0
1 1 0.888128 -0.431947 -0.157005 0 0 0
3 1 -0.0460545 0.94123 0.334612 0 0 0
ITEM: TIMESTEP
51000
ITEM: NUMBER OF ATOMS
7
ITEM: BOX BOUNDS pp pp pp
-2.5000000000000000e+01 2.5000000000000000e+01
-2.5000000000000000e+01 2.5000000000000000e+01
-2.5000000000000000e+01 2.5000000000000000e+01
ITEM: ATOMS id type x y z mux muy muz
6 1 0.0367011 -0.939514 -0.340537 0 0 0
4 1 -0.883792 0.439719 0.159869 0 0 0
5 1 -0.847091 -0.499795 -0.180668 0 0 0