
# Simulation Parameters
variable log_freq equal 10000                    # log frequency
variable runsteps equal 100000000                 # N of steps to run for
variable timestep equal 0.00001                   # timestep

# -------------------------- ATOMS/MOLECULE DEFINITION --------------------------
read_data hex.conf                              # Add a hexagon molecule
  orthogonal box = (-25 -25 -25) to (25 25 25)
  1 by 1 by 1 MPI processor grid
  reading atoms ...
  7 atoms
  scanning bonds ...
  6 = max bonds/atom
  scanning angles ...
  6 = max angles/atom
  reading bonds ...
  12 bonds
  reading angles ...
  11 angles
  6 = max # of 1-2 neighbors
  12 = max # of 1-3 neighbors
  36 = max # of 1-4 neighbors
  6 = max # of special neighbors
  special bonds CPU = 0.0001238 secs
  read_data CPU = 0.0032123 secs
read_data hex.conf add append shift 4.0 0.0 0.0 # Add a second identical molecule, shifted so it doesn't overlap
  orthogonal box = (-25 -25 -25) to (29 25 25)
  1 by 1 by 1 MPI processor grid
  reading atoms ...
  7 atoms
  scanning bonds ...
  6 = max bonds/atom
  scanning angles ...
  6 = max angles/atom
  reading bonds ...
  12 bonds
  reading angles ...
  11 angles
  6 = max # of 1-2 neighbors
  12 = max # of 1-3 neighbors
  36 = max # of 1-4 neighbors
  6 = max # of special neighbors
  special bonds CPU = 0.0002164 secs
  read_data CPU = 0.0008641 secs

# Group ID can be used in other commands, including fix, compute, dump or velocity
group       hex_1 id 1 2 3 4 5 6 7              # label the atoms 1-7 as a group
7 atoms in group hex_1
group       hex_2 id 8 9 10 11 12 13 14         # label the atoms 8-14 as another group
7 atoms in group hex_2

# -------------------------- INTERATOMIC POTENTIALS -----------------------------
# Pairwise lj truncated potential, with a cutoff set at a particular distance
pair_style  lj/cut  ${cut}
pair_style  lj/cut  1.5
pair_coeff  *   *   ${epsilon} ${sigma}         # * * means all atoms interact with each other
pair_coeff  *   *   2 ${sigma}         
pair_coeff  *   *   2 2         

# Don't compute pair interactions within rigid body
neigh_modify exclude molecule/intra hex_1
neigh_modify exclude molecule/intra hex_2

################## SYSTEM INITIALISATION WITH AN NVT SIMULATION ##################
# -------------------------------------------------------------------------------
# Add energy to the system by running an NVT simulation, use a very stiff spring to
# keep rigid bodies close. Then, remove (unfix) the thermostat and spring before
# initialising and running the more important NVE simulation
# -------------------------------------------------------------------------------

# System fixes: spring and nose-hoover thermostat
fix hex_spring_NVT hex_1 spring couple hex_2 1 0 0 0 ${r0} # adds harmonic spring between RBs
fix hex_spring_NVT hex_1 spring couple hex_2 1 0 0 0 0 
fix rigid_1_NVT hex_1 rigid/nvt/small molecule temp ${temp} ${temp} 1.0 tparam 10 3 3
fix rigid_1_NVT hex_1 rigid/nvt/small molecule temp 0.6 ${temp} 1.0 tparam 10 3 3
fix rigid_1_NVT hex_1 rigid/nvt/small molecule temp 0.6 0.6 1.0 tparam 10 3 3
  create bodies CPU = 9.1e-06 secs
1 rigid bodies with 7 atoms
  1 = max distance from body owner to body atom
fix rigid_2_NVT hex_2 rigid/nvt/small molecule temp ${temp} ${temp} 1.0 tparam 10 3 3
fix rigid_2_NVT hex_2 rigid/nvt/small molecule temp 0.6 ${temp} 1.0 tparam 10 3 3
fix rigid_2_NVT hex_2 rigid/nvt/small molecule temp 0.6 0.6 1.0 tparam 10 3 3
  create bodies CPU = 2.62e-05 secs
1 rigid bodies with 7 atoms
  1 = max distance from body owner to body atom

# Basic output to terminal
thermo ${log_freq}
thermo 10000
thermo_style custom step f_hex_spring_NVT[*] temp pe ke etotal

# Set temperature and run simulation
velocity hex_1 create ${temp} ${seed}
velocity hex_1 create 0.6 ${seed}
velocity hex_1 create 0.6 5
WARNING: Changing velocities of atoms in rigid bodies. This has no effect unless rigid bodies are rebuild (src/velocity.cpp:71)
WARNING: Cannot count rigid body degrees-of-freedom before bodies are fully initialized (src/RIGID/fix_rigid_small.cpp:1157)
WARNING: Cannot count rigid body degrees-of-freedom before bodies are fully initialized (src/RIGID/fix_rigid_small.cpp:1157)
run 0
WARNING: Bonds are defined but no bond style is set (src/force.cpp:205)
WARNING: Likewise 1-2 special neighbor interactions != 1.0 (src/force.cpp:207)
WARNING: Angles are defined but no angle style is set (src/force.cpp:210)
WARNING: Likewise 1-3 special neighbor interactions != 1.0 (src/force.cpp:212)
WARNING: More than one fix rigid (src/RIGID/fix_rigid_small.cpp:561)
WARNING: More than one fix rigid (src/RIGID/fix_rigid_small.cpp:561)
Neighbor list info ...
  update every 1 steps, delay 10 steps, check yes
  max neighbors/atom: 2000, page size: 100000
  master list distance cutoff = 1.8
  ghost atom cutoff = 1.8
  binsize = 0.9, bins = 60 56 56
  1 neighbor lists, perpetual/occasional/extra = 1 0 0
  (1) pair lj/cut, perpetual
      attributes: half, newton on
      pair build: half/bin/newton
      stencil: half/bin/3d/newton
      bin: standard
Per MPI rank memory allocation (min/avg/max) = 18.56 | 18.56 | 18.56 Mbytes
Step f_hex_spring_NVT[1] f_hex_spring_NVT[2] f_hex_spring_NVT[3] f_hex_spring_NVT[4] Temp PotEng KinEng TotEng 
       0   0.28571429            0            0   0.28571429  0.014046481            0 0.0045149403 0.0045149403 
Loop time of 1.4e-06 on 1 procs for 0 steps with 14 atoms

214.3% CPU use with 1 MPI tasks x no OpenMP threads

MPI task timing breakdown:
Section |  min time  |  avg time  |  max time  |%varavg| %total
---------------------------------------------------------------
Pair    | 0          | 0          | 0          |   0.0 |  0.00
Bond    | 0          | 0          | 0          |   0.0 |  0.00
Neigh   | 0          | 0          | 0          |   0.0 |  0.00
Comm    | 0          | 0          | 0          |   0.0 |  0.00
Output  | 0          | 0          | 0          |   0.0 |  0.00
Modify  | 0          | 0          | 0          |   0.0 |  0.00
Other   |            | 1.4e-06    |            |       |100.00

Nlocal:    14 ave 14 max 14 min
Histogram: 1 0 0 0 0 0 0 0 0 0
Nghost:    0 ave 0 max 0 min
Histogram: 1 0 0 0 0 0 0 0 0 0
Neighs:    0 ave 0 max 0 min
Histogram: 1 0 0 0 0 0 0 0 0 0

Total # of neighbors = 0
Ave neighs/atom = 0
Ave special neighs/atom = 6
Neighbor list builds = 0
Dangerous builds = 0
velocity all scale ${temp}
velocity all scale 0.6
WARNING: Changing velocities of atoms in rigid bodies. This has no effect unless rigid bodies are rebuild (src/velocity.cpp:71)
run 100000
WARNING: Bonds are defined but no bond style is set (src/force.cpp:205)
WARNING: Likewise 1-2 special neighbor interactions != 1.0 (src/force.cpp:207)
WARNING: Angles are defined but no angle style is set (src/force.cpp:210)
WARNING: Likewise 1-3 special neighbor interactions != 1.0 (src/force.cpp:212)
WARNING: More than one fix rigid (src/RIGID/fix_rigid_small.cpp:561)
WARNING: More than one fix rigid (src/RIGID/fix_rigid_small.cpp:561)
Per MPI rank memory allocation (min/avg/max) = 18.56 | 18.56 | 18.56 Mbytes
Step f_hex_spring_NVT[1] f_hex_spring_NVT[2] f_hex_spring_NVT[3] f_hex_spring_NVT[4] Temp PotEng KinEng TotEng 
       0   0.28571429            0            0   0.28571429          0.6            0   0.19285714   0.19285714 
   10000    0.2112914   0.19216022 -0.080332112   0.29668646   0.31842702            0   0.10235154   0.10235154 
   20000  -0.19995113  0.076354584  0.084898385   0.23025684    2.4332436            0   0.78211402   0.78211402 
   30000   0.20862331 -0.087212655  -0.19373828   0.29776543   0.69580256            0   0.22365082   0.22365082 
   40000  0.071769795  0.087457334   0.17416191   0.20768259    1.8212099            0    0.5853889    0.5853889 
   50000   -0.2238659  0.085894873  0.041186119   0.24329029    1.4522374            0    0.4667906    0.4667906 
   60000   0.17956527   0.19815835  0.042787084   0.27081572    1.1777285            0   0.37855559   0.37855559 
   70000  -0.25491324 -0.018040975  -0.12317248   0.28368591   0.27787421            0   0.08931671   0.08931671 
   80000   0.16488029   -0.2104514   0.12980517   0.29719469    0.2737996            0  0.088007015  0.088007015 
   90000   0.05660384   0.14080134   0.26765752   0.30768419   0.36362106            0    0.1168782    0.1168782 
  100000  -0.23064628  0.045888535  0.093941727   0.25323608   0.52044313            0   0.16728529   0.16728529 
Loop time of 1.84547 on 1 procs for 100000 steps with 14 atoms

Performance: 23408630.372 tau/day, 54186.644 timesteps/s
95.7% CPU use with 1 MPI tasks x no OpenMP threads

MPI task timing breakdown:
Section |  min time  |  avg time  |  max time  |%varavg| %total
---------------------------------------------------------------
Pair    | 0.047429   | 0.047429   | 0.047429   |   0.0 |  2.57
Bond    | 0.040234   | 0.040234   | 0.040234   |   0.0 |  2.18
Neigh   | 0.54916    | 0.54916    | 0.54916    |   0.0 | 29.76
Comm    | 0.11088    | 0.11088    | 0.11088    |   0.0 |  6.01
Output  | 0.0005113  | 0.0005113  | 0.0005113  |   0.0 |  0.03
Modify  | 0.96263    | 0.96263    | 0.96263    |   0.0 | 52.16
Other   |            | 0.1346     |            |       |  7.29

Nlocal:    14 ave 14 max 14 min
Histogram: 1 0 0 0 0 0 0 0 0 0
Nghost:    0 ave 0 max 0 min
Histogram: 1 0 0 0 0 0 0 0 0 0
Neighs:    0 ave 0 max 0 min
Histogram: 1 0 0 0 0 0 0 0 0 0

Total # of neighbors = 0
Ave neighs/atom = 0
Ave special neighs/atom = 6
Neighbor list builds = 4030
Dangerous builds = 195

unfix rigid_1_NVT
unfix rigid_2_NVT
unfix hex_spring_NVT

################################ NVE SIMULATION #################################
# ------------------------------- SYSTEM FIXES ----------------------------------
fix rig_hex_1 hex_1 rigid/nve/small molecule
  create bodies CPU = 8.7e-06 secs
1 rigid bodies with 7 atoms
  1 = max distance from body owner to body atom
fix rig_hex_2 hex_2 rigid/nve/small molecule
  create bodies CPU = 6e-06 secs
1 rigid bodies with 7 atoms
  1 = max distance from body owner to body atom
fix hex_spring hex_1 spring couple hex_2 ${K} 0.0 0.0 0.0 ${r0} # spring between RBs
fix hex_spring hex_1 spring couple hex_2 0.164609053497942 0.0 0.0 0.0 ${r0} 
fix hex_spring hex_1 spring couple hex_2 0.164609053497942 0.0 0.0 0.0 0 
# f_hex_spring[1,2,3,4] = force_x, force_y, force_z, magnitude of the force

# ----------------------------- PROPERTY COMPUTES -------------------------------
# Calculate rigid body properties - local data, so must be outputted using dump ... "local"
compute com_1   all rigid/local rig_hex_1 xu yu zu                  # RB1 unscaled center of mass x, y, z
compute com_2   all rigid/local rig_hex_2 xu yu zu                  # RB2 unscaled center of mass x, y, z
compute vel_1   all rigid/local rig_hex_1 vx vy vz                  # RB1 center of mass velocities vx, vy, vz
compute vel_2   all rigid/local rig_hex_2 vx vy vz                  # RB2 center of mass velocities vx, vy, vz
compute q_1     all rigid/local rig_hex_1 quati quatj quatk quatw   # RB1 quaternion components
compute q_2     all rigid/local rig_hex_2 quati quatj quatk quatw   # RB2 quaternion components
compute av_1    all rigid/local rig_hex_1 omegax omegay omegaz      # RB1 angular velocities
compute av_2    all rigid/local rig_hex_2 omegax omegay omegaz      # RB2 angular velocities
compute am_1    all rigid/local rig_hex_1 angmomx angmomy angmomz   # RB1 angular momenta
compute am_2    all rigid/local rig_hex_2 angmomx angmomy angmomz   # RB2 angular momenta
compute i_1    all rigid/local rig_hex_1 inertiax inertiay inertiaz # RB1 inertia
compute i_2    all rigid/local rig_hex_2 inertiax inertiay inertiaz # RB2 inertia

# ----------------------------- CONFIGURE OUTPUTS -------------------------------
thermo_style custom step f_hex_spring[*] temp pe ke etotal
dump    1 all custom ${log_freq} ${traj}       id type x y z
dump    1 all custom 10000 ${traj}       id type x y z
dump    1 all custom 10000 NVE-temp-0.6_K-0.164609053497942_r-0_s-5-traj.dump       id type x y z
dump    2 all local  ${log_freq} ${rb_info}  c_com_1[*] c_com_2[*]                     c_vel_1[*] c_vel_2[*] c_q_1[*] c_q_2[*] c_av_1[*] c_av_2[*]                     c_am_1[*] c_am_2[*] c_i_1[*] c_i_2[*]
dump    2 all local  10000 ${rb_info}  c_com_1[*] c_com_2[*]                     c_vel_1[*] c_vel_2[*] c_q_1[*] c_q_2[*] c_av_1[*] c_av_2[*]                     c_am_1[*] c_am_2[*] c_i_1[*] c_i_2[*]
dump    2 all local  10000 NVE-temp-0.6_K-0.164609053497942_r-0_s-5-info.dat  c_com_1[*] c_com_2[*]                     c_vel_1[*] c_vel_2[*] c_q_1[*] c_q_2[*] c_av_1[*] c_av_2[*]                     c_am_1[*] c_am_2[*] c_i_1[*] c_i_2[*]

log ${sim_log} # create new log file with simulation information only
log NVE-temp-0.6_K-0.164609053497942_r-0_s-5-sim.log 
