
# Simulation Parameters
variable log_freq equal 10000                    # log frequency
variable runsteps equal 100000000                 # N of steps to run for
variable timestep equal 0.00001                   # timestep

# -------------------------- ATOMS/MOLECULE DEFINITION --------------------------
read_data hex.conf                              # Add a hexagon molecule
  orthogonal box = (-25 -25 -25) to (25 25 25)
  1 by 1 by 1 MPI processor grid
  reading atoms ...
  7 atoms
  scanning bonds ...
  6 = max bonds/atom
  scanning angles ...
  6 = max angles/atom
  reading bonds ...
  12 bonds
  reading angles ...
  11 angles
  6 = max # of 1-2 neighbors
  12 = max # of 1-3 neighbors
  36 = max # of 1-4 neighbors
  6 = max # of special neighbors
  special bonds CPU = 0.0002423 secs
  read_data CPU = 0.0039894 secs
read_data hex.conf add append shift 4.0 0.0 0.0 # Add a second identical molecule, shifted so it doesn't overlap
  orthogonal box = (-25 -25 -25) to (29 25 25)
  1 by 1 by 1 MPI processor grid
  reading atoms ...
  7 atoms
  scanning bonds ...
  6 = max bonds/atom
  scanning angles ...
  6 = max angles/atom
  reading bonds ...
  12 bonds
  reading angles ...
  11 angles
  6 = max # of 1-2 neighbors
  12 = max # of 1-3 neighbors
  36 = max # of 1-4 neighbors
  6 = max # of special neighbors
  special bonds CPU = 0.0002924 secs
  read_data CPU = 0.0009904 secs

# Group ID can be used in other commands, including fix, compute, dump or velocity
group       hex_1 id 1 2 3 4 5 6 7              # label the atoms 1-7 as a group
7 atoms in group hex_1
group       hex_2 id 8 9 10 11 12 13 14         # label the atoms 8-14 as another group
7 atoms in group hex_2

# -------------------------- INTERATOMIC POTENTIALS -----------------------------
# Pairwise lj truncated potential, with a cutoff set at a particular distance
pair_style  lj/cut  ${cut}
pair_style  lj/cut  1.5
pair_coeff  *   *   ${epsilon} ${sigma}         # * * means all atoms interact with each other
pair_coeff  *   *   2 ${sigma}         
pair_coeff  *   *   2 2         

# Don't compute pair interactions within rigid body
neigh_modify exclude molecule/intra hex_1
neigh_modify exclude molecule/intra hex_2

################## SYSTEM INITIALISATION WITH AN NVT SIMULATION ##################
# -------------------------------------------------------------------------------
# Add energy to the system by running an NVT simulation, use a very stiff spring to
# keep rigid bodies close. Then, remove (unfix) the thermostat and spring before
# initialising and running the more important NVE simulation
# -------------------------------------------------------------------------------

# System fixes: spring and nose-hoover thermostat
fix hex_spring_NVT hex_1 spring couple hex_2 1 0 0 0 ${r0} # adds harmonic spring between RBs
fix hex_spring_NVT hex_1 spring couple hex_2 1 0 0 0 0 
fix rigid_1_NVT hex_1 rigid/nvt/small molecule temp ${temp} ${temp} 1.0 tparam 10 3 3
fix rigid_1_NVT hex_1 rigid/nvt/small molecule temp 0.2 ${temp} 1.0 tparam 10 3 3
fix rigid_1_NVT hex_1 rigid/nvt/small molecule temp 0.2 0.2 1.0 tparam 10 3 3
  create bodies CPU = 1.72e-05 secs
1 rigid bodies with 7 atoms
  1 = max distance from body owner to body atom
fix rigid_2_NVT hex_2 rigid/nvt/small molecule temp ${temp} ${temp} 1.0 tparam 10 3 3
fix rigid_2_NVT hex_2 rigid/nvt/small molecule temp 0.2 ${temp} 1.0 tparam 10 3 3
fix rigid_2_NVT hex_2 rigid/nvt/small molecule temp 0.2 0.2 1.0 tparam 10 3 3
  create bodies CPU = 1.04e-05 secs
1 rigid bodies with 7 atoms
  1 = max distance from body owner to body atom

# Basic output to terminal
thermo ${log_freq}
thermo 10000
thermo_style custom step f_hex_spring_NVT[*] temp pe ke etotal

# Set temperature and run simulation
velocity hex_1 create ${temp} ${seed}
velocity hex_1 create 0.2 ${seed}
velocity hex_1 create 0.2 5
WARNING: Changing velocities of atoms in rigid bodies. This has no effect unless rigid bodies are rebuild (src/velocity.cpp:71)
WARNING: Cannot count rigid body degrees-of-freedom before bodies are fully initialized (src/RIGID/fix_rigid_small.cpp:1157)
WARNING: Cannot count rigid body degrees-of-freedom before bodies are fully initialized (src/RIGID/fix_rigid_small.cpp:1157)
run 0
WARNING: Bonds are defined but no bond style is set (src/force.cpp:205)
WARNING: Likewise 1-2 special neighbor interactions != 1.0 (src/force.cpp:207)
WARNING: Angles are defined but no angle style is set (src/force.cpp:210)
WARNING: Likewise 1-3 special neighbor interactions != 1.0 (src/force.cpp:212)
WARNING: More than one fix rigid (src/RIGID/fix_rigid_small.cpp:561)
WARNING: More than one fix rigid (src/RIGID/fix_rigid_small.cpp:561)
Neighbor list info ...
  update every 1 steps, delay 10 steps, check yes
  max neighbors/atom: 2000, page size: 100000
  master list distance cutoff = 1.8
  ghost atom cutoff = 1.8
  binsize = 0.9, bins = 60 56 56
  1 neighbor lists, perpetual/occasional/extra = 1 0 0
  (1) pair lj/cut, perpetual
      attributes: half, newton on
      pair build: half/bin/newton
      stencil: half/bin/3d/newton
      bin: standard
Per MPI rank memory allocation (min/avg/max) = 18.56 | 18.56 | 18.56 Mbytes
Step f_hex_spring_NVT[1] f_hex_spring_NVT[2] f_hex_spring_NVT[3] f_hex_spring_NVT[4] Temp PotEng KinEng TotEng 
       0   0.28571429            0            0   0.28571429 0.0046821603            0 0.0015049801 0.0015049801 
Loop time of 1.5e-06 on 1 procs for 0 steps with 14 atoms

200.0% CPU use with 1 MPI tasks x no OpenMP threads

MPI task timing breakdown:
Section |  min time  |  avg time  |  max time  |%varavg| %total
---------------------------------------------------------------
Pair    | 0          | 0          | 0          |   0.0 |  0.00
Bond    | 0          | 0          | 0          |   0.0 |  0.00
Neigh   | 0          | 0          | 0          |   0.0 |  0.00
Comm    | 0          | 0          | 0          |   0.0 |  0.00
Output  | 0          | 0          | 0          |   0.0 |  0.00
Modify  | 0          | 0          | 0          |   0.0 |  0.00
Other   |            | 1.5e-06    |            |       |100.00

Nlocal:    14 ave 14 max 14 min
Histogram: 1 0 0 0 0 0 0 0 0 0
Nghost:    0 ave 0 max 0 min
Histogram: 1 0 0 0 0 0 0 0 0 0
Neighs:    0 ave 0 max 0 min
Histogram: 1 0 0 0 0 0 0 0 0 0

Total # of neighbors = 0
Ave neighs/atom = 0
Ave special neighs/atom = 6
Neighbor list builds = 0
Dangerous builds = 0
velocity all scale ${temp}
velocity all scale 0.2
WARNING: Changing velocities of atoms in rigid bodies. This has no effect unless rigid bodies are rebuild (src/velocity.cpp:71)
run 100000
WARNING: Bonds are defined but no bond style is set (src/force.cpp:205)
WARNING: Likewise 1-2 special neighbor interactions != 1.0 (src/force.cpp:207)
WARNING: Angles are defined but no angle style is set (src/force.cpp:210)
WARNING: Likewise 1-3 special neighbor interactions != 1.0 (src/force.cpp:212)
WARNING: More than one fix rigid (src/RIGID/fix_rigid_small.cpp:561)
WARNING: More than one fix rigid (src/RIGID/fix_rigid_small.cpp:561)
Per MPI rank memory allocation (min/avg/max) = 18.56 | 18.56 | 18.56 Mbytes
Step f_hex_spring_NVT[1] f_hex_spring_NVT[2] f_hex_spring_NVT[3] f_hex_spring_NVT[4] Temp PotEng KinEng TotEng 
       0   0.28571429            0            0   0.28571429          0.2            0  0.064285714  0.064285714 
   10000   0.13342917   0.17983208  0.033237543   0.22637945    0.2221878            0  0.071417506  0.071417506 
   20000  0.064631523   0.17386252    0.1454887   0.23573793   0.20188516            0  0.064891659  0.064891659 
   30000  -0.17787661   0.11493296   0.22797762    0.3111647   0.12861658            0  0.041341042  0.041341042 
   40000  -0.17256732 -0.0027484212   0.16239658   0.23698034   0.20254419            0  0.065103489  0.065103489 
   50000 -0.0064702317  -0.20447586  0.068054336   0.21560063    1.0530064            0   0.33846635   0.33846635 
   60000  -0.12609489  -0.22628833  0.011292421    0.2592949   0.36676242            0   0.11788792   0.11788792 
   70000  -0.16105273 -0.072756177   0.11848387   0.21276717   0.77546553            0   0.24925678   0.24925678 
   80000  -0.15519335  -0.22077281  0.016952445   0.27039414   0.37988097            0    0.1221046    0.1221046 
   90000  -0.13308688  -0.20120701  0.018154964   0.24192144   0.26178218            0  0.084144272  0.084144272 
  100000   -0.2060926  -0.16234003 -0.058719384   0.26884273   0.17604938            0  0.056587301  0.056587301 
Loop time of 1.78934 on 1 procs for 100000 steps with 14 atoms

Performance: 24143038.112 tau/day, 55886.662 timesteps/s
92.0% CPU use with 1 MPI tasks x no OpenMP threads

MPI task timing breakdown:
Section |  min time  |  avg time  |  max time  |%varavg| %total
---------------------------------------------------------------
Pair    | 0.049178   | 0.049178   | 0.049178   |   0.0 |  2.75
Bond    | 0.042178   | 0.042178   | 0.042178   |   0.0 |  2.36
Neigh   | 0.43585    | 0.43585    | 0.43585    |   0.0 | 24.36
Comm    | 0.11839    | 0.11839    | 0.11839    |   0.0 |  6.62
Output  | 0.0006287  | 0.0006287  | 0.0006287  |   0.0 |  0.04
Modify  | 1.0019     | 1.0019     | 1.0019     |   0.0 | 55.99
Other   |            | 0.1412     |            |       |  7.89

Nlocal:    14 ave 14 max 14 min
Histogram: 1 0 0 0 0 0 0 0 0 0
Nghost:    0 ave 0 max 0 min
Histogram: 1 0 0 0 0 0 0 0 0 0
Neighs:    0 ave 0 max 0 min
Histogram: 1 0 0 0 0 0 0 0 0 0

Total # of neighbors = 0
Ave neighs/atom = 0
Ave special neighs/atom = 6
Neighbor list builds = 3048
Dangerous builds = 199

unfix rigid_1_NVT
unfix rigid_2_NVT
unfix hex_spring_NVT

################################ NVE SIMULATION #################################
# ------------------------------- SYSTEM FIXES ----------------------------------
fix rig_hex_1 hex_1 rigid/nve/small molecule
  create bodies CPU = 8.9e-06 secs
1 rigid bodies with 7 atoms
  1 = max distance from body owner to body atom
fix rig_hex_2 hex_2 rigid/nve/small molecule
  create bodies CPU = 5.9e-06 secs
1 rigid bodies with 7 atoms
  1 = max distance from body owner to body atom
fix hex_spring hex_1 spring couple hex_2 ${K} 0.0 0.0 0.0 ${r0} # spring between RBs
fix hex_spring hex_1 spring couple hex_2 0.493827160493827 0.0 0.0 0.0 ${r0} 
fix hex_spring hex_1 spring couple hex_2 0.493827160493827 0.0 0.0 0.0 0 
# f_hex_spring[1,2,3,4] = force_x, force_y, force_z, magnitude of the force

# ----------------------------- PROPERTY COMPUTES -------------------------------
# Calculate rigid body properties - local data, so must be outputted using dump ... "local"
compute com_1   all rigid/local rig_hex_1 xu yu zu                  # RB1 unscaled center of mass x, y, z
compute com_2   all rigid/local rig_hex_2 xu yu zu                  # RB2 unscaled center of mass x, y, z
compute vel_1   all rigid/local rig_hex_1 vx vy vz                  # RB1 center of mass velocities vx, vy, vz
compute vel_2   all rigid/local rig_hex_2 vx vy vz                  # RB2 center of mass velocities vx, vy, vz
compute q_1     all rigid/local rig_hex_1 quati quatj quatk quatw   # RB1 quaternion components
compute q_2     all rigid/local rig_hex_2 quati quatj quatk quatw   # RB2 quaternion components
compute av_1    all rigid/local rig_hex_1 omegax omegay omegaz      # RB1 angular velocities
compute av_2    all rigid/local rig_hex_2 omegax omegay omegaz      # RB2 angular velocities
compute am_1    all rigid/local rig_hex_1 angmomx angmomy angmomz   # RB1 angular momenta
compute am_2    all rigid/local rig_hex_2 angmomx angmomy angmomz   # RB2 angular momenta
compute i_1    all rigid/local rig_hex_1 inertiax inertiay inertiaz # RB1 inertia
compute i_2    all rigid/local rig_hex_2 inertiax inertiay inertiaz # RB2 inertia

# ----------------------------- CONFIGURE OUTPUTS -------------------------------
thermo_style custom step f_hex_spring[*] temp pe ke etotal
dump    1 all custom ${log_freq} ${traj}       id type x y z
dump    1 all custom 10000 ${traj}       id type x y z
dump    1 all custom 10000 NVE-temp-0.2_K-0.493827160493827_r-0_s-5-traj.dump       id type x y z
dump    2 all local  ${log_freq} ${rb_info}  c_com_1[*] c_com_2[*]                     c_vel_1[*] c_vel_2[*] c_q_1[*] c_q_2[*] c_av_1[*] c_av_2[*]                     c_am_1[*] c_am_2[*] c_i_1[*] c_i_2[*]
dump    2 all local  10000 ${rb_info}  c_com_1[*] c_com_2[*]                     c_vel_1[*] c_vel_2[*] c_q_1[*] c_q_2[*] c_av_1[*] c_av_2[*]                     c_am_1[*] c_am_2[*] c_i_1[*] c_i_2[*]
dump    2 all local  10000 NVE-temp-0.2_K-0.493827160493827_r-0_s-5-info.dat  c_com_1[*] c_com_2[*]                     c_vel_1[*] c_vel_2[*] c_q_1[*] c_q_2[*] c_av_1[*] c_av_2[*]                     c_am_1[*] c_am_2[*] c_i_1[*] c_i_2[*]

log ${sim_log} # create new log file with simulation information only
log NVE-temp-0.2_K-0.493827160493827_r-0_s-5-sim.log 
