LAMMPS Config File [2022-03-07 12:00]

7 atoms
12 bonds
11 angles

1 atom types
1 bond types
1 angle types

-25.0 25.0 xlo xhi
-25.0 25.0 ylo yhi
-25.0 25.0 zlo zhi

Masses

1 1.0

Atoms

1 1 1 0 1.0 0.0 0.0
2 1 1 0 0.5 0.8660254037844386 0.0
3 1 1 0 -0.5 0.8660254037844386 0.0
4 1 1 0 -1.0 0.0 0.0
5 1 1 0 -0.5 -0.8660254037844386 0.0
6 1 1 0 0.5 -0.8660254037844386 0.0
7 1 1 0 0 0 0

Bonds

1 1 1 2
2 1 2 3
3 1 3 4
4 1 4 5
5 1 5 6
6 1 6 1
7 1 7 1
7 1 7 2
7 1 7 3
7 1 7 4
7 1 7 5
7 1 7 6

Angles

1 1 1 2 3
2 1 2 3 4
3 1 3 4 5
4 1 4 5 6
5 1 5 6 1
6 1 1 7 2
7 1 2 7 3
8 1 3 7 4
9 1 4 7 5
10 1 5 7 6
11 1 6 7 1