ITEM: TIMESTEP
0
ITEM: NUMBER OF ENTRIES
1
ITEM: BOX BOUNDS pp pp pp
-25 35
-25 25
-25 25
ITEM: ENTRIES c_com_1[1] c_com_1[2] c_com_1[3] c_com_2[1] c_com_2[2] c_com_2[3] c_vel_1[1] c_vel_1[2] c_vel_1[3] c_vel_2[1] c_vel_2[2] c_vel_2[3] c_q_1[1] c_q_1[2] c_q_1[3] c_q_1[4] c_q_2[1] c_q_2[2] c_q_2[3] c_q_2[4] c_av_1[1] c_av_1[2] c_av_1[3] c_av_2[1] c_av_2[2] c_av_2[3] c_am_1[1] c_am_1[2] c_am_1[3] c_am_2[1] c_am_2[2] c_am_2[3] c_i_1[1] c_i_1[2] c_i_1[3] c_i_2[1] c_i_2[2] c_i_2[3] 
0 0 0 10 0 0 -5.55112e-17 5.55112e-17 0 0 3.17207e-17 -9.91271e-19 0 0 0 1 0 0 0 1 -0.429831 -0.65956 -0.188539 0.140537 0.277253 -0.530335 -1.28949 -1.97868 -1.13124 0.42161 0.83176 -3.18201 3 3 6 3 3 6 
ITEM: TIMESTEP
10000
ITEM: NUMBER OF ENTRIES
1
ITEM: BOX BOUNDS pp pp pp
-25 35
-25 25
-25 25
ITEM: ENTRIES c_com_1[1] c_com_1[2] c_com_1[3] c_com_2[1] c_com_2[2] c_com_2[3] c_vel_1[1] c_vel_1[2] c_vel_1[3] c_vel_2[1] c_vel_2[2] c_vel_2[3] c_q_1[1] c_q_1[2] c_q_1[3] c_q_1[4] c_q_2[1] c_q_2[2] c_q_2[3] c_q_2[4] c_av_1[1] c_av_1[2] c_av_1[3] c_av_2[1] c_av_2[2] c_av_2[3] c_am_1[1] c_am_1[2] c_am_1[3] c_am_2[1] c_am_2[2] c_am_2[3] c_i_1[1] c_i_1[2] c_i_1[3] c_i_2[1] c_i_2[2] c_i_2[3] 
-5.55112e-18 5.55112e-18 0 10 3.17207e-18 -9.91271e-20 -5.55112e-17 5.55112e-17 0 0 3.17207e-17 -9.91271e-19 -0.0217946 -0.0327636 -0.00942926 0.999181 0.00738815 0.0136645 -0.0265147 0.999528 -0.442098 -0.651232 -0.189123 0.154816 0.269036 -0.530591 -1.28949 -1.97868 -1.13124 0.42161 0.83176 -3.18201 3 3 6 3 3 6 
ITEM: TIMESTEP
20000
ITEM: NUMBER OF ENTRIES
1
ITEM: BOX BOUNDS pp pp pp
-25 35
-25 25
-25 25
ITEM: ENTRIES c_com_1[1] c_com_1[2] c_com_1[3] c_com_2[1] c_com_2[2] c_com_2[3] c_vel_1[1] c_vel_1[2] c_vel_1[3] c_vel_2[1] c_vel_2[2] c_vel_2[3] c_q_1[1] c_q_1[2] c_q_1[3] c_q_1[4] c_q_2[1] c_q_2[2] c_q_2[3] c_q_2[4] c_av_1[1] c_av_1[2] c_av_1[3] c_av_2[1] c_av_2[2] c_av_2[3] c_am_1[1] c_am_1[2] c_am_1[3] c_am_2[1] c_am_2[2] c_am_2[3] c_i_1[1] c_i_1[2] c_i_1[3] c_i_2[1] c_i_2[2] c_i_2[3] 
-1.11022e-17 1.11022e-17 0 10 6.34413e-18 -1.98254e-19 -5.55112e-17 5.55112e-17 0 0 3.17207e-17 -9.91271e-19 -0.0441628 -0.0650513 -0.0188723 0.996726 0.015472 0.0268866 -0.0530172 0.998112 -0.453966 -0.642499 -0.19087 0.16813 0.259362 -0.531356 -1.28949 -1.97868 -1.13124 0.42161 0.83176 -3.18201 3 3 6 3 3 6 
ITEM: TIMESTEP
30000
ITEM: NUMBER OF ENTRIES
1
ITEM: BOX BOUNDS pp pp pp
-25 35
-25 25
-25 25
ITEM: ENTRIES c_com_1[1] c_com_1[2] c_com_1[3] c_com_2[1] c_com_2[2] c_com_2[3] c_vel_1[1] c_vel_1[2] c_vel_1[3] c_vel_2[1] c_vel_2[2] c_vel_2[3] c_q_1[1] c_q_1[2] c_q_1[3] c_q_1[4] c_q_2[1] c_q_2[2] c_q_2[3] c_q_2[4] c_av_1[1] c_av_1[2] c_av_1[3] c_av_2[1] c_av_2[2] c_av_2[3] c_am_1[1] c_am_1[2] c_am_1[3] c_am_2[1] c_am_2[2] c_am_2[3] c_i_1[1] c_i_1[2] c_i_1[3] c_i_2[1] c_i_2[2] c_i_2[3] 
-1.66533e-17 1.66533e-17 0 10 9.5162e-18 -2.97381e-19 -5.55112e-17 5.55112e-17 0 0 3.17207e-17 -9.91271e-19 -0.0670545 -0.0967942 -0.0283427 0.992639 0.0242074 0.0395993 -0.0794951 0.995754 -0.465345 -0.633427 -0.193768 0.180319 0.248347 -0.53262 -1.28949 -1.97868 -1.13124 0.42161 0.83176 -3.18201 3 3 6 3 3 6 
ITEM: TIMESTEP
40000
ITEM: NUMBER OF ENTRIES
1
ITEM: BOX BOUNDS pp pp pp
-25 35
-25 25
-25 25
ITEM: ENTRIES c_com_1[1] c_com_1[2] c_com_1[3] c_com_2[1] c_com_2[2] c_com_2[3] c_vel_1[1] c_vel_1[2] c_vel_1[3] c_vel_2[1] c_vel_2[2] c_vel_2[3] c_q_1[1] c_q_1[2] c_q_1[3] c_q_1[4] c_q_2[1] c_q_2[2] c_q_2[3] c_q_2[4] c_av_1[1] c_av_1[2] c_av_1[3] c_av_2[1] c_av_2[2] c_av_2[3] c_am_1[1] c_am_1[2] c_am_1[3] c_am_2[1] c_am_2[2] c_am_2[3] c_i_1[1] c_i_1[2] c_i_1[3] c_i_2[1] c_i_2[2] c_i_2[3] 
-2.22045e-17 2.22045e-17 0 10 1.26883e-17 -3.96508e-19 -5.55112e-17 5.55112e-17 0 0 3.17207e-17 -9.91271e-19 -0.0904171 -0.127925 -0.037854 0.986928 0.0335451 0.0517396 -0.105936 0.992459 -0.476148 -0.624086 -0.197793 0.191232 0.236128 -0.534368 -1.28949 -1.97868 -1.13124 0.42161 0.83176 -3.18201 3 3 6 3 3 6 
ITEM: TIMESTEP
50000
ITEM: NUMBER OF ENTRIES
1
ITEM: BOX BOUNDS pp pp pp
-25 35
-25 25
-25 25
ITEM: ENTRIES c_com_1[1] c_com_1[2] c_com_1[3] c_com_2[1] c_com_2[2] c_com_2[3] c_vel_1[1] c_vel_1[2] c_vel_1[3] c_vel_2[1] c_vel_2[2] c_vel_2[3] c_q_1[1] c_q_1[2] c_q_1[3] c_q_1[4] c_q_2[1] c_q_2[2] c_q_2[3] c_q_2[4] c_av_1[1] c_av_1[2] c_av_1[3] c_av_2[1] c_av_2[2] c_av_2[3] c_am_1[1] c_am_1[2] c_am_1[3] c_am_2[1] c_am_2[2] c_am_2[3] c_i_1[1] c_i_1[2] c_i_1[3] c_i_2[1] c_i_2[2] c_i_2[3] 
-2.77556e-17 2.77556e-17 0 10 1.58603e-17 -4.95635e-19 -5.55112e-17 5.55112e-17 0 0 3.17207e-17 -9.91271e-19 -0.114196 -0.15838 -0.0474194 0.979605 0.0434311 0.0632483 -0.132327 0.988232 -0.486293 -0.614546 -0.202915 0.200737 0.222852 -0.536579 -1.28949 -1.97868 -1.13124 0.42161 0.83176 -3.18201 3 3 6 3 3 6 
ITEM: TIMESTEP
60000
ITEM: NUMBER OF ENTRIES
1
ITEM: BOX BOUNDS pp pp pp
-25 35
-25 25
-25 25
ITEM: ENTRIES c_com_1[1] c_com_1[2] c_com_1[3] c_com_2[1] c_com_2[2] c_com_2[3] c_vel_1[1] c_vel_1[2] c_vel_1[3] c_vel_2[1] c_vel_2[2] c_vel_2[3] c_q_1[1] c_q_1[2] c_q_1[3] c_q_1[4] c_q_2[1] c_q_2[2] c_q_2[3] c_q_2[4] c_av_1[1] c_av_1[2] c_av_1[3] c_av_2[1] c_av_2[2] c_av_2[3] c_am_1[1] c_am_1[2] c_am_1[3] c_am_2[1] c_am_2[2] c_am_2[3] c_i_1[1] c_i_1[2] c_i_1[3] c_i_2[1] c_i_2[2] c_i_2[3] 
-3.33067e-17 3.33067e-17 0 10 1.90324e-17 -5.94762e-19 -5.55112e-17 5.55112e-17 0 0 3.17207e-17 -9.91271e-19 -0.138335 -0.188095 -0.0570519 0.970685 0.0538073 0.074071 -0.158656 0.98308 -0.495703 -0.60488 -0.209096 0.208717 0.208682 -0.539226 -1.28949 -1.97868 -1.13124 0.42161 0.83176 -3.18201 3 3 6 3 3 6 
ITEM: TIMESTEP
70000
ITEM: NUMBER OF ENTRIES
1
ITEM: BOX BOUNDS pp pp pp
-25 35
-25 25
-25 25
ITEM: ENTRIES c_com_1[1] c_com_1[2] c_com_1[3] c_com_2[1] c_com_2[2] c_com_2[3] c_vel_1[1] c_vel_1[2] c_vel_1[3] c_vel_2[1] c_vel_2[2] c_vel_2[3] c_q_1[1] c_q_1[2] c_q_1[3] c_q_1[4] c_q_2[1] c_q_2[2] c_q_2[3] c_q_2[4] c_av_1[1] c_av_1[2] c_av_1[3] c_av_2[1] c_av_2[2] c_av_2[3] c_am_1[1] c_am_1[2] c_am_1[3] c_am_2[1] c_am_2[2] c_am_2[3] c_i_1[1] c_i_1[2] c_i_1[3] c_i_2[1] c_i_2[2] c_i_2[3] 
-3.88578e-17 3.88578e-17 0 10 2.22045e-17 -6.93889e-19 -5.55112e-17 5.55112e-17 0 0 3.17207e-17 -9.91271e-19 -0.162776 -0.21701 -0.0667639 0.960184 0.0646116 0.0841577 -0.18491 0.977011 -0.504305 -0.595162 -0.216288 0.215076 0.193791 -0.542275 -1.28949 -1.97868 -1.13124 0.42161 0.83176 -3.18201 3 3 6 3 3 6 
ITEM: TIMESTEP
80000
ITEM: NUMBER OF ENTRIES
1
ITEM: BOX BOUNDS pp pp pp
-25 35
-25 25
-25 25
ITEM: ENTRIES c_com_1[1] c_com_1[2] c_com_1[3] c_com_2[1] c_com_2[2] c_com_2[3] c_vel_1[1] c_vel_1[2] c_vel_1[3] c_vel_2[1] c_vel_2[2] c_vel_2[3] c_q_1[1] c_q_1[2] c_q_1[3] c_q_1[4] c_q_2[1] c_q_2[2] c_q_2[3] c_q_2[4] c_av_1[1] c_av_1[2] c_av_1[3] c_av_2[1] c_av_2[2] c_av_2[3] c_am_1[1] c_am_1[2] c_am_1[3] c_am_2[1] c_am_2[2] c_am_2[3] c_i_1[1] c_i_1[2] c_i_1[3] c_i_2[1] c_i_2[2] c_i_2[3] 
-4.44089e-17 4.44089e-17 0 10 2.53765e-17 -7.93016e-19 -5.55112e-17 5.55112e-17 0 0 3.17207e-17 -9.91271e-19 -0.187458 -0.245069 -0.0765673 0.948124 0.0757783 0.0934638 -0.211075 0.970036 -0.512035 -0.585466 -0.224437 0.219735 0.178361 -0.545692 -1.28949 -1.97868 -1.13124 0.42161 0.83176 -3.18201 3 3 6 3 3 6 
ITEM: TIMESTEP
90000
ITEM: NUMBER OF ENTRIES
1
ITEM: BOX BOUNDS pp pp pp
-25 35
-25 25
-25 25
ITEM: ENTRIES c_com_1[1] c_com_1[2] c_com_1[3] c_com_2[1] c_com_2[2] c_com_2[3] c_vel_1[1] c_vel_1[2] c_vel_1[3] c_vel_2[1] c_vel_2[2] c_vel_2[3] c_q_1[1] c_q_1[2] c_q_1[3] c_q_1[4] c_q_2[1] c_q_2[2] c_q_2[3] c_q_2[4] c_av_1[1] c_av_1[2] c_av_1[3] c_av_2[1] c_av_2[2] c_av_2[3] c_am_1[1] c_am_1[2] c_am_1[3] c_am_2[1] c_am_2[2] c_am_2[3] c_i_1[1] c_i_1[2] c_i_1[3] c_i_2[1] c_i_2[2] c_i_2[3] 
-4.996e-17 4.996e-17 0 10 2.85486e-17 -8.92144e-19 -5.55112e-17 5.55112e-17 0 0 3.17207e-17 -9.91271e-19 -0.21232 -0.272215 -0.0864735 0.934527 0.0872388 0.10195 -0.237137 0.962165 -0.518834 -0.575865 -0.23348 0.222638 0.16258 -0.549432 -1.28949 -1.97868 -1.13124 0.42161 0.83176 -3.18201 3 3 6 3 3 6 
ITEM: TIMESTEP
100000
ITEM: NUMBER OF ENTRIES
1
ITEM: BOX BOUNDS pp pp pp
-25 35
-25 25
-25 25
ITEM: ENTRIES c_com_1[1] c_com_1[2] c_com_1[3] c_com_2[1] c_com_2[2] c_com_2[3] c_vel_1[1] c_vel_1[2] c_vel_1[3] c_vel_2[1] c_vel_2[2] c_vel_2[3] c_q_1[1] c_q_1[2] c_q_1[3] c_q_1[4] c_q_2[1] c_q_2[2] c_q_2[3] c_q_2[4] c_av_1[1] c_av_1[2] c_av_1[3] c_av_2[1] c_av_2[2] c_av_2[3] c_am_1[1] c_am_1[2] c_am_1[3] c_am_2[1] c_am_2[2] c_am_2[3] c_i_1[1] c_i_1[2] c_i_1[3] c_i_2[1] c_i_2[2] c_i_2[3] 
-5.55112e-17 5.55112e-17 0 10 3.17207e-17 -9.91271e-19 -5.55112e-17 5.55112e-17 0 0 3.17207e-17 -9.91271e-19 -0.237299 -0.298397 -0.0964933 0.919422 0.0989217 0.109583 -0.263083 0.953411 -0.52465 -0.566433 -0.243348 0.223749 0.14664 -0.553451 -1.28949 -1.97868 -1.13124 0.42161 0.83176 -3.18201 3 3 6 3 3 6 
ITEM: TIMESTEP
110000
ITEM: NUMBER OF ENTRIES
1
ITEM: BOX BOUNDS pp pp pp
-25 35
-25 25
-25 25
ITEM: ENTRIES c_com_1[1] c_com_1[2] c_com_1[3] c_com_2[1] c_com_2[2] c_com_2[3] c_vel_1[1] c_vel_1[2] c_vel_1[3] c_vel_2[1] c_vel_2[2] c_vel_2[3] c_q_1[1] c_q_1[2] c_q_1[3] c_q_1[4] c_q_2[1] c_q_2[2] c_q_2[3] c_q_2[4] c_av_1[1] c_av_1[2] c_av_1[3] c_av_2[1] c_av_2[2] c_av_2[3] c_am_1[1] c_am_1[2] c_am_1[3] c_am_2[1] c_am_2[2] c_am_2[3] c_i_1[1] c_i_1[2] c_i_1[3] c_i_2[1] c_i_2[2] c_i_2[3] 
-6.10623e-17 6.10623e-17 0 10 3.48927e-17 -1.0904e-18 -5.55112e-17 5.55112e-17 0 0 3.17207e-17 -9.91271e-19 -0.262331 -0.323566 -0.106637 0.902838 0.110754 0.116334 -0.288898 0.943789 -0.529438 -0.557241 -0.253967 0.223055 0.130736 -0.557701 -1.28949 -1.97868 -1.13124 0.42161 0.83176 -3.18201 3 3 6 3 3 6 
ITEM: TIMESTEP
120000
ITEM: NUMBER OF ENTRIES
1
ITEM: BOX BOUNDS pp pp pp
-25 35
-25 25
-25 25
ITEM: ENTRIES c_com_1[1] c_com_1[2] c_com_1[3] c_com_2[1] c_com_2[2] c_com_2[3] c_vel_1[1] c_vel_1[2] c_vel_1[3] c_vel_2[1] c_vel_2[2] c_vel_2[3] c_q_1[1] c_q_1[2] c_q_1[3] c_q_1[4] c_q_2[1] c_q_2[2] c_q_2[3] c_q_2[4] c_av_1[1] c_av_1[2] c_av_1[3] c_av_2[1] c_av_2[2] c_av_2[3] c_am_1[1] c_am_1[2] c_am_1[3] c_am_2[1] c_am_2[2] c_am_2[3] c_i_1[1] c_i_1[2] c_i_1[3] c_i_2[1] c_i_2[2] c_i_2[3] 
-6.66134e-17 6.66134e-17 0 10 3.80648e-17 -1.18952e-18 -5.55112e-17 5.55112e-17 0 0 3.17207e-17 -9.91271e-19 -0.287352 -0.347676 -0.116913 0.884806 0.122659 0.122183 -0.314566 0.933314 -0.533162 -0.548361 -0.265256 0.220564 0.115062 -0.562128 -1.28949 -1.97868 -1.13124 0.42161 0.83176 -3.18201 3 3 6 3 3 6 
ITEM: TIMESTEP
130000
ITEM: NUMBER OF ENTRIES
1
ITEM: BOX BOUNDS pp pp pp
-25 35
-25 25
-25 25
ITEM: ENTRIES c_com_1[1] c_com_1[2] c_com_1[3] c_com_2[1] c_com_2[2] c_com_2[3] c_vel_1[1] c_vel_1[2] c_vel_1[3] c_vel_2[1] c_vel_2[2] c_vel_2[3] c_q_1[1] c_q_1[2] c_q_1[3] c_q_1[4] c_q_2[1] c_q_2[2] c_q_2[3] c_q_2[4] c_av_1[1] c_av_1[2] c_av_1[3] c_av_2[1] c_av_2[2] c_av_2[3] c_am_1[1] c_am_1[2] c_am_1[3] c_am_2[1] c_am_2[2] c_am_2[3] c_i_1[1] c_i_1[2] c_i_1[3] c_i_2[1] c_i_2[2] c_i_2[3] 
-7.21645e-17 7.21645e-17 0 10 4.12369e-17 -1.28865e-18 -5.55112e-17 5.55112e-17 0 0 3.17207e-17 -9.91271e-19 -0.312295 -0.370683 -0.12733 0.865363 0.134562 0.127112 -0.340073 0.922001 -0.535794 -0.539858 -0.277128 0.216307 0.0998094 -0.566679 -1.28949 -1.97868 -1.13124 0.42161 0.83176 -3.18201 3 3 6 3 3 6 
ITEM: TIMESTEP
140000
ITEM: NUMBER OF ENTRIES
1
ITEM: BOX BOUNDS pp pp pp
-25 35
-25 25
-25 25
ITEM: ENTRIES c_com_1[1] c_com_1[2] c_com_1[3] c_com_2[1] c_com_2[2] c_com_2[3] c_vel_1[1] c_vel_1[2] c_vel_1[3] c_vel_2[1] c_vel_2[2] c_vel_2[3] c_q_1[1] c_q_1[2] c_q_1[3] c_q_1[4] c_q_2[1] c_q_2[2] c_q_2[3] c_q_2[4] c_av_1[1] c_av_1[2] c_av_1[3] c_av_2[1] c_av_2[2] c_av_2[3] c_am_1[1] c_am_1[2] c_am_1[3] c_am_2[1] c_am_2[2] c_am_2[3] c_i_1[1] c_i_1[2] c_i_1[3] c_i_2[1] c_i_2[2] c_i_2[3] 
-7.77156e-17 7.77156e-17 0 10 4.44089e-17 -1.38778e-18 -5.55112e-17 5.55112e-17 0 0 3.17207e-17 -9.91271e-19 -0.337094 -0.392548 -0.137895 0.844546 0.146386 0.131114 -0.365402 0.909869 -0.537314 -0.531798 -0.289493 0.210336 0.0851645 -0.571298 -1.28949 -1.97868 -1.13124 0.42161 0.83176 -3.18201 3 3 6 3 3 6 
ITEM: TIMESTEP
150000
ITEM: NUMBER OF ENTRIES
1
ITEM: BOX BOUNDS pp pp pp
-25 35
-25 25
-25 25
ITEM: ENTRIES c_com_1[1] c_com_1[2] c_com_1[3] c_com_2[1] c_com_2[2] c_com_2[3] c_vel_1[1] c_vel_1[2] c_vel_1[3] c_vel_2[1] c_vel_2[2] c_vel_2[3] c_q_1[1] c_q_1[2] c_q_1[3] c_q_1[4] c_q_2[1] c_q_2[2] c_q_2[3] c_q_2[4] c_av_1[1] c_av_1[2] c_av_1[3] c_av_2[1] c_av_2[2] c_av_2[3] c_am_1[1] c_am_1[2] c_am_1[3] c_am_2[1] c_am_2[2] c_am_2[3] c_i_1[1] c_i_1[2] c_i_1[3] c_i_2[1] c_i_2[2] c_i_2[3] 
-8.32667e-17 8.32667e-17 0 10 4.7581e-17 -1.48691e-18 -5.55112e-17 5.55112e-17 0 0 3.17207e-17 -9.91271e-19 -0.361682 -0.413235 -0.148615 0.822397 0.158053 0.134184 -0.390537 0.896936 -0.53771 -0.524242 -0.302257 0.202722 0.0713059 -0.575929 -1.28949 -1.97868 -1.13124 0.42161 0.83176 -3.18201 3 3 6 3 3 6 
ITEM: TIMESTEP
160000
ITEM: NUMBER OF ENTRIES
1
ITEM: BOX BOUNDS pp pp pp
-25 35
-25 25
-25 25
ITEM: ENTRIES c_com_1[1] c_com_1[2] c_com_1[3] c_com_2[1] c_com_2[2] c_com_2[3] c_vel_1[1] c_vel_1[2] c_vel_1[3] c_vel_2[1] c_vel_2[2] c_vel_2[3] c_q_1[1] c_q_1[2] c_q_1[3] c_q_1[4] c_q_2[1] c_q_2[2] c_q_2[3] c_q_2[4] c_av_1[1] c_av_1[2] c_av_1[3] c_av_2[1] c_av_2[2] c_av_2[3] c_am_1[1] c_am_1[2] c_am_1[3] c_am_2[1] c_am_2[2] c_am_2[3] c_i_1[1] c_i_1[2] c_i_1[3] c_i_2[1] c_i_2[2] c_i_2[3] 
-8.88178e-17 8.88178e-17 0 10 5.07531e-17 -1.58603e-18 -5.55112e-17 5.55112e-17 0 0 3.17207e-17 -9.91271e-19 -0.385992 -0.43271 -0.159495 0.798958 0.169487 0.136326 -0.41546 0.883223 -0.536979 -0.517249 -0.315324 0.193561 0.0584026 -0.580516 -1.28949 -1.97868 -1.13124 0.42161 0.83176 -3.18201 3 3 6 3 3 6 
ITEM: TIMESTEP
170000
ITEM: NUMBER OF ENTRIES
1
ITEM: BOX BOUNDS pp pp pp
-25 35
-25 25
-25 25
ITEM: ENTRIES c_com_1[1] c_com_1[2] c_com_1[3] c_com_2[1] c_com_2[2] c_com_2[3] c_vel_1[1] c_vel_1[2] c_vel_1[3] c_vel_2[1] c_vel_2[2] c_vel_2[3] c_q_1[1] c_q_1[2] c_q_1[3] c_q_1[4] c_q_2[1] c_q_2[2] c_q_2[3] c_q_2[4] c_av_1[1] c_av_1[2] c_av_1[3] c_av_2[1] c_av_2[2] c_av_2[3] c_am_1[1] c_am_1[2] c_am_1[3] c_am_2[1] c_am_2[2] c_am_2[3] c_i_1[1] c_i_1[2] c_i_1[3] c_i_2[1] c_i_2[2] c_i_2[3] 
-9.4369e-17 9.4369e-17 0 10 5.39251e-17 -1.68516e-18 -5.55112e-17 5.55112e-17 0 0 3.17207e-17 -9.91271e-19 -0.409957 -0.450945 -0.170539 0.774274 0.180611 0.137549 -0.440155 0.868748 -0.535127 -0.51087 -0.328592 0.182962 0.0466122 -0.585002 -1.28949 -1.97868 -1.13124 0.42161 0.83176 -3.18201 3 3 6 3 3 6 
ITEM: TIMESTEP
180000
ITEM: NUMBER OF ENTRIES
1
ITEM: BOX BOUNDS pp pp pp
-25 35
-25 25
-25 25
ITEM: ENTRIES c_com_1[1] c_com_1[2] c_com_1[3] c_com_2[1] c_com_2[2] c_com_2[3] c_vel_1[1] c_vel_1[2] c_vel_1[3] c_vel_2[1] c_vel_2[2] c_vel_2[3] c_q_1[1] c_q_1[2] c_q_1[3] c_q_1[4] c_q_2[1] c_q_2[2] c_q_2[3] c_q_2[4] c_av_1[1] c_av_1[2] c_av_1[3] c_av_2[1] c_av_2[2] c_av_2[3] c_am_1[1] c_am_1[2] c_am_1[3] c_am_2[1] c_am_2[2] c_am_2[3] c_i_1[1] c_i_1[2] c_i_1[3] c_i_2[1] c_i_2[2] c_i_2[3] 
-9.99201e-17 9.99201e-17 0 10 5.70972e-17 -1.78429e-18 -5.55112e-17 5.55112e-17 0 0 3.17207e-17 -9.91271e-19 -0.433509 -0.467913 -0.18175 0.748395 0.191352 0.137869 -0.464601 0.853535 -0.532168 -0.505155 -0.341962 0.171056 0.0360785 -0.589333 -1.28949 -1.97868 -1.13124 0.42161 0.83176 -3.18201 3 3 6 3 3 6 
ITEM: TIMESTEP
190000
ITEM: NUMBER OF ENTRIES
1
ITEM: BOX BOUNDS pp pp pp
-25 35
-25 25
-25 25
ITEM: ENTRIES c_com_1[1] c_com_1[2] c_com_1[3] c_com_2[1] c_com_2[2] c_com_2[3] c_vel_1[1] c_vel_1[2] c_vel_1[3] c_vel_2[1] c_vel_2[2] c_vel_2[3] c_q_1[1] c_q_1[2] c_q_1[3] c_q_1[4] c_q_2[1] c_q_2[2] c_q_2[3] c_q_2[4] c_av_1[1] c_av_1[2] c_av_1[3] c_av_2[1] c_av_2[2] c_av_2[3] c_am_1[1] c_am_1[2] c_am_1[3] c_am_2[1] c_am_2[2] c_am_2[3] c_i_1[1] c_i_1[2] c_i_1[3] c_i_2[1] c_i_2[2] c_i_2[3] 
-1.05471e-16 1.05471e-16 0 10 6.02692e-17 -1.88341e-18 -5.55112e-17 5.55112e-17 0 0 3.17207e-17 -9.91271e-19 -0.456581 -0.483591 -0.19313 0.721369 0.201636 0.137307 -0.488782 0.837605 -0.528124 -0.500147 -0.355331 0.157987 0.0269301 -0.593456 -1.28949 -1.97868 -1.13124 0.42161 0.83176 -3.18201 3 3 6 3 3 6 
ITEM: TIMESTEP
200000
ITEM: NUMBER OF ENTRIES
1
ITEM: BOX BOUNDS pp pp pp
-25 35
-25 25
-25 25
ITEM: ENTRIES c_com_1[1] c_com_1[2] c_com_1[3] c_com_2[1] c_com_2[2] c_com_2[3] c_vel_1[1] c_vel_1[2] c_vel_1[3] c_vel_2[1] c_vel_2[2] c_vel_2[3] c_q_1[1] c_q_1[2] c_q_1[3] c_q_1[4] c_q_2[1] c_q_2[2] c_q_2[3] c_q_2[4] c_av_1[1] c_av_1[2] c_av_1[3] c_av_2[1] c_av_2[2] c_av_2[3] c_am_1[1] c_am_1[2] c_am_1[3] c_am_2[1] c_am_2[2] c_am_2[3] c_i_1[1] c_i_1[2] c_i_1[3] c_i_2[1] c_i_2[2] c_i_2[3] 
-1.11022e-16 1.11022e-16 0 10 6.34413e-17 -1.98254e-18 -5.55112e-17 5.55112e-17 0 0 3.17207e-17 -9.91271e-19 -0.479108 -0.497962 -0.204679 0.69325 0.211394 0.13589 -0.512677 0.82098 -0.523026 -0.495884 -0.368598 0.143916 0.0192787 -0.597321 -1.28949 -1.97868 -1.13124 0.42161 0.83176 -3.18201 3 3 6 3 3 6 
ITEM: TIMESTEP
210000
ITEM: NUMBER OF ENTRIES
1
ITEM: BOX BOUNDS pp pp pp
-25 35
-25 25
-25 25
ITEM: ENTRIES c_com_1[1] c_com_1[2] c_com_1[3] c_com_2[1] c_com_2[2] c_com_2[3] c_vel_1[1] c_vel_1[2] c_vel_1[3] c_vel_2[1] c_vel_2[2] c_vel_2[3] c_q_1[1] c_q_1[2] c_q_1[3] c_q_1[4] c_q_2[1] c_q_2[2] c_q_2[3] c_q_2[4] c_av_1[1] c_av_1[2] c_av_1[3] c_av_2[1] c_av_2[2] c_av_2[3] c_am_1[1] c_am_1[2] c_am_1[3] c_am_2[1] c_am_2[2] c_am_2[3] c_i_1[1] c_i_1[2] c_i_1[3] c_i_2[1] c_i_2[2] c_i_2[3] 
-1.16573e-16 1.16573e-16 0 10 6.66134e-17 -2.08167e-18 -5.55112e-17 5.55112e-17 0 0 3.17207e-17 -9.91271e-19 -0.501023 -0.51101 -0.216396 0.664092 0.220558 0.133653 -0.536266 0.803685 -0.516913 -0.492399 -0.381662 0.129014 0.0132176 -0.600879 -1.28949 -1.97868 -1.13124 0.42161 0.83176 -3.18201 3 3 6 3 3 6 
ITEM: TIMESTEP
220000
ITEM: NUMBER OF ENTRIES
1
ITEM: BOX BOUNDS pp pp pp
-25 35
-25 25
-25 25
ITEM: ENTRIES c_com_1[1] c_com_1[2] c_com_1[3] c_com_2[1] c_com_2[2] c_com_2[3] c_vel_1[1] c_vel_1[2] c_vel_1[3] c_vel_2[1] c_vel_2[2] c_vel_2[3] c_q_1[1] c_q_1[2] c_q_1[3] c_q_1[4] c_q_2[1] c_q_2[2] c_q_2[3] c_q_2[4] c_av_1[1] c_av_1[2] c_av_1[3] c_av_2[1] c_av_2[2] c_av_2[3] c_am_1[1] c_am_1[2] c_am_1[3] c_am_2[1] c_am_2[2] c_am_2[3] c_i_1[1] c_i_1[2] c_i_1[3] c_i_2[1] c_i_2[2] c_i_2[3] 
-1.22125e-16 1.22125e-16 0 10 6.97854e-17 -2.1808e-18 -5.55112e-17 5.55112e-17 0 0 3.17207e-17 -9.91271e-19 -0.522262 -0.522722 -0.228279 0.63395 0.229064 0.130632 -0.559529 0.785743 -0.509831 -0.489719 -0.394423 0.113463 0.00882082 -0.604089 -1.28949 -1.97868 -1.13124 0.42161 0.83176 -3.18201 3 3 6 3 3 6 
ITEM: TIMESTEP
230000
ITEM: NUMBER OF ENTRIES
1
ITEM: BOX BOUNDS pp pp pp
-25 35
-25 25
-25 25
ITEM: ENTRIES c_com_1[1] c_com_1[2] c_com_1[3] c_com_2[1] c_com_2[2] c_com_2[3] c_vel_1[1] c_vel_1[2] c_vel_1[3] c_vel_2[1] c_vel_2[2] c_vel_2[3] c_q_1[1] c_q_1[2] c_q_1[3] c_q_1[4] c_q_2[1] c_q_2[2] c_q_2[3] c_q_2[4] c_av_1[1] c_av_1[2] c_av_1[3] c_av_2[1] c_av_2[2] c_av_2[3] c_am_1[1] c_am_1[2] c_am_1[3] c_am_2[1] c_am_2[2] c_am_2[3] c_i_1[1] c_i_1[2] c_i_1[3] c_i_2[1] c_i_2[2] c_i_2[3] 
-1.27676e-16 1.27676e-16 0 10 7.29575e-17 -2.27992e-18 -5.55112e-17 5.55112e-17 0 0 3.17207e-17 -9.91271e-19 -0.542761 -0.533092 -0.240325 0.602882 0.236852 0.126872 -0.582445 0.767179 -0.501835 -0.487863 -0.406784 0.0974527 0.00614197 -0.606911 -1.28949 -1.97868 -1.13124 0.42161 0.83176 -3.18201 3 3 6 3 3 6 
ITEM: TIMESTEP
240000
ITEM: NUMBER OF ENTRIES
1
ITEM: BOX BOUNDS pp pp pp
-25 35
-25 25
-25 25
ITEM: ENTRIES c_com_1[1] c_com_1[2] c_com_1[3] c_com_2[1] c_com_2[2] c_com_2[3] c_vel_1[1] c_vel_1[2] c_vel_1[3] c_vel_2[1] c_vel_2[2] c_vel_2[3] c_q_1[1] c_q_1[2] c_q_1[3] c_q_1[4] c_q_2[1] c_q_2[2] c_q_2[3] c_q_2[4] c_av_1[1] c_av_1[2] c_av_1[3] c_av_2[1] c_av_2[2] c_av_2[3] c_am_1[1] c_am_1[2] c_am_1[3] c_am_2[1] c_am_2[2] c_am_2[3] c_i_1[1] c_i_1[2] c_i_1[3] c_i_2[1] c_i_2[2] c_i_2[3] 
-1.33227e-16 1.33227e-16 0 10 7.61296e-17 -2.37905e-18 -5.55112e-17 5.55112e-17 0 0 3.17207e-17 -9.91271e-19 -0.562457 -0.542116 -0.252528 0.570948 0.243865 0.122421 -0.604992 0.748016 -0.492986 -0.486846 -0.41865 0.0811783 0.00521377 -0.60931 -1.28949 -1.97868 -1.13124 0.42161 0.83176 -3.18201 3 3 6 3 3 6 
ITEM: TIMESTEP
250000
ITEM: NUMBER OF ENTRIES
1
ITEM: BOX BOUNDS pp pp pp
-25 35
-25 25
-25 25
ITEM: ENTRIES c_com_1[1] c_com_1[2] c_com_1[3] c_com_2[1] c_com_2[2] c_com_2[3] c_vel_1[1] c_vel_1[2] c_vel_1[3] c_vel_2[1] c_vel_2[2] c_vel_2[3] c_q_1[1] c_q_1[2] c_q_1[3] c_q_1[4] c_q_2[1] c_q_2[2] c_q_2[3] c_q_2[4] c_av_1[1] c_av_1[2] c_av_1[3] c_av_2[1] c_av_2[2] c_av_2[3] c_am_1[1] c_am_1[2] c_am_1[3] c_am_2[1] c_am_2[2] c_am_2[3] c_i_1[1] c_i_1[2] c_i_1[3] c_i_2[1] c_i_2[2] c_i_2[3] 
-1.38778e-16 1.38778e-16 0 10 7.93016e-17 -2.47818e-18 -5.55112e-17 5.55112e-17 0 0 3.17207e-17 -9.91271e-19 -0.581289 -0.549791 -0.264883 0.538209 0.250051 0.117333 -0.627148 0.728281 -0.48335 -0.486675 -0.429933 0.0648386 0.00604754 -0.611257 -1.28949 -1.97868 -1.13124 0.42161 0.83176 -3.18201 3 3 6 3 3 6 
ITEM: TIMESTEP
260000
ITEM: NUMBER OF ENTRIES
1
ITEM: BOX BOUNDS pp pp pp
-25 35
-25 25
-25 25
ITEM: ENTRIES c_com_1[1] c_com_1[2] c_com_1[3] c_com_2[1] c_com_2[2] c_com_2[3] c_vel_1[1] c_vel_1[2] c_vel_1[3] c_vel_2[1] c_vel_2[2] c_vel_2[3] c_q_1[1] c_q_1[2] c_q_1[3] c_q_1[4] c_q_2[1] c_q_2[2] c_q_2[3] c_q_2[4] c_av_1[1] c_av_1[2] c_av_1[3] c_av_2[1] c_av_2[2] c_av_2[3] c_am_1[1] c_am_1[2] c_am_1[3] c_am_2[1] c_am_2[2] c_am_2[3] c_i_1[1] c_i_1[2] c_i_1[3] c_i_2[1] c_i_2[2] c_i_2[3] 
-1.44329e-16 1.44329e-16 0 10 8.24737e-17 -2.5773e-18 -5.55112e-17 5.55112e-17 0 0 3.17207e-17 -9.91271e-19 -0.599198 -0.556122 -0.277381 0.504728 0.255365 0.111663 -0.648891 0.707997 -0.473001 -0.487353 -0.440545 0.0486329 0.00863311 -0.612728 -1.28949 -1.97868 -1.13124 0.42161 0.83176 -3.18201 3 3 6 3 3 6 
ITEM: TIMESTEP
270000
ITEM: NUMBER OF ENTRIES
1
ITEM: BOX BOUNDS pp pp pp
-25 35
-25 25
-25 25
ITEM: ENTRIES c_com_1[1] c_com_1[2] c_com_1[3] c_com_2[1] c_com_2[2] c_com_2[3] c_vel_1[1] c_vel_1[2] c_vel_1[3] c_vel_2[1] c_vel_2[2] c_vel_2[3] c_q_1[1] c_q_1[2] c_q_1[3] c_q_1[4] c_q_2[1] c_q_2[2] c_q_2[3] c_q_2[4] c_av_1[1] c_av_1[2] c_av_1[3] c_av_2[1] c_av_2[2] c_av_2[3] c_am_1[1] c_am_1[2] c_am_1[3] c_am_2[1] c_am_2[2] c_am_2[3] c_i_1[1] c_i_1[2] c_i_1[3] c_i_2[1] c_i_2[2] c_i_2[3] 
-1.4988e-16 1.4988e-16 0 10 8.56458e-17 -2.67643e-18 -5.55112e-17 5.55112e-17 0 0 3.17207e-17 -9.91271e-19 -0.616125 -0.561115 -0.290013 0.470566 0.259763 0.105474 -0.670199 0.687191 -0.462018 -0.488873 -0.450405 0.0327592 0.0129389 -0.613706 -1.28949 -1.97868 -1.13124 0.42161 0.83176 -3.18201 3 3 6 3 3 6 
ITEM: TIMESTEP
280000
ITEM: NUMBER OF ENTRIES
1
ITEM: BOX BOUNDS pp pp pp
-25 35
-25 25
-25 25
ITEM: ENTRIES c_com_1[1] c_com_1[2] c_com_1[3] c_com_2[1] c_com_2[2] c_com_2[3] c_vel_1[1] c_vel_1[2] c_vel_1[3] c_vel_2[1] c_vel_2[2] c_vel_2[3] c_q_1[1] c_q_1[2] c_q_1[3] c_q_1[4] c_q_2[1] c_q_2[2] c_q_2[3] c_q_2[4] c_av_1[1] c_av_1[2] c_av_1[3] c_av_2[1] c_av_2[2] c_av_2[3] c_am_1[1] c_am_1[2] c_am_1[3] c_am_2[1] c_am_2[2] c_am_2[3] c_i_1[1] c_i_1[2] c_i_1[3] c_i_2[1] c_i_2[2] c_i_2[3] 
-1.55431e-16 1.55431e-16 0 10 8.88178e-17 -2.77556e-18 -5.55112e-17 5.55112e-17 0 0 3.17207e-17 -9.91271e-19 -0.632016 -0.564779 -0.302768 0.435789 0.263211 0.0988279 -0.691047 0.665888 -0.450484 -0.491224 -0.45944 0.017411 0.0189124 -0.614178 -1.28949 -1.97868 -1.13124 0.42161 0.83176 -3.18201 3 3 6 3 3 6 
ITEM: TIMESTEP
290000
ITEM: NUMBER OF ENTRIES
1
ITEM: BOX BOUNDS pp pp pp
-25 35
-25 25
-25 25
ITEM: ENTRIES c_com_1[1] c_com_1[2] c_com_1[3] c_com_2[1] c_com_2[2] c_com_2[3] c_vel_1[1] c_vel_1[2] c_vel_1[3] c_vel_2[1] c_vel_2[2] c_vel_2[3] c_q_1[1] c_q_1[2] c_q_1[3] c_q_1[4] c_q_2[1] c_q_2[2] c_q_2[3] c_q_2[4] c_av_1[1] c_av_1[2] c_av_1[3] c_av_2[1] c_av_2[2] c_av_2[3] c_am_1[1] c_am_1[2] c_am_1[3] c_am_2[1] c_am_2[2] c_am_2[3] c_i_1[1] c_i_1[2] c_i_1[3] c_i_2[1] c_i_2[2] c_i_2[3] 
-1.60982e-16 1.60982e-16 0 10 9.19899e-17 -2.87468e-18 -5.55112e-17 5.55112e-17 0 0 3.17207e-17 -9.91271e-19 -0.646815 -0.567129 -0.315634 0.400463 0.265676 0.0917931 -0.711414 0.644112 -0.438488 -0.494389 -0.467579 0.00277573 0.0264807 -0.614139 -1.28949 -1.97868 -1.13124 0.42161 0.83176 -3.18201 3 3 6 3 3 6 
ITEM: TIMESTEP
300000
ITEM: NUMBER OF ENTRIES
1
ITEM: BOX BOUNDS pp pp pp
-25 35
-25 25
-25 25
ITEM: ENTRIES c_com_1[1] c_com_1[2] c_com_1[3] c_com_2[1] c_com_2[2] c_com_2[3] c_vel_1[1] c_vel_1[2] c_vel_1[3] c_vel_2[1] c_vel_2[2] c_vel_2[3] c_q_1[1] c_q_1[2] c_q_1[3] c_q_1[4] c_q_2[1] c_q_2[2] c_q_2[3] c_q_2[4] c_av_1[1] c_av_1[2] c_av_1[3] c_av_2[1] c_av_2[2] c_av_2[3] c_am_1[1] c_am_1[2] c_am_1[3] c_am_2[1] c_am_2[2] c_am_2[3] c_i_1[1] c_i_1[2] c_i_1[3] c_i_2[1] c_i_2[2] c_i_2[3] 
-1.66533e-16 1.66533e-16 0 10 9.5162e-17 -2.97381e-18 -5.55112e-17 5.55112e-17 0 0 3.17207e-17 -9.91271e-19 -0.660472 -0.56818 -0.328598 0.364653 0.267136 0.0844383 -0.731275 0.621889 -0.42612 -0.498342 -0.474761 -0.0109681 0.0355515 -0.613589 -1.28949 -1.97868 -1.13124 0.42161 0.83176 -3.18201 3 3 6 3 3 6 
ITEM: TIMESTEP
310000
ITEM: NUMBER OF ENTRIES
1
ITEM: BOX BOUNDS pp pp pp
-25 35
-25 25
-25 25
ITEM: ENTRIES c_com_1[1] c_com_1[2] c_com_1[3] c_com_2[1] c_com_2[2] c_com_2[3] c_vel_1[1] c_vel_1[2] c_vel_1[3] c_vel_2[1] c_vel_2[2] c_vel_2[3] c_q_1[1] c_q_1[2] c_q_1[3] c_q_1[4] c_q_2[1] c_q_2[2] c_q_2[3] c_q_2[4] c_av_1[1] c_av_1[2] c_av_1[3] c_av_2[1] c_av_2[2] c_av_2[3] c_am_1[1] c_am_1[2] c_am_1[3] c_am_2[1] c_am_2[2] c_am_2[3] c_i_1[1] c_i_1[2] c_i_1[3] c_i_2[1] c_i_2[2] c_i_2[3] 
-1.72085e-16 1.72085e-16 0 10 9.8334e-17 -3.07294e-18 -5.55112e-17 5.55112e-17 0 0 3.17207e-17 -9.91271e-19 -0.672937 -0.567954 -0.341644 0.328426 0.26757 0.0768347 -0.750607 0.599243 -0.413476 -0.503055 -0.480932 -0.0236526 0.046014 -0.612535 -1.28949 -1.97868 -1.13124 0.42161 0.83176 -3.18201 3 3 6 3 3 6 
ITEM: TIMESTEP
320000
ITEM: NUMBER OF ENTRIES
1
ITEM: BOX BOUNDS pp pp pp
-25 35
-25 25
-25 25
ITEM: ENTRIES c_com_1[1] c_com_1[2] c_com_1[3] c_com_2[1] c_com_2[2] c_com_2[3] c_vel_1[1] c_vel_1[2] c_vel_1[3] c_vel_2[1] c_vel_2[2] c_vel_2[3] c_q_1[1] c_q_1[2] c_q_1[3] c_q_1[4] c_q_2[1] c_q_2[2] c_q_2[3] c_q_2[4] c_av_1[1] c_av_1[2] c_av_1[3] c_av_2[1] c_av_2[2] c_av_2[3] c_am_1[1] c_am_1[2] c_am_1[3] c_am_2[1] c_am_2[2] c_am_2[3] c_i_1[1] c_i_1[2] c_i_1[3] c_i_2[1] c_i_2[2] c_i_2[3] 
-1.77636e-16 1.77636e-16 0 10 1.01506e-16 -3.17207e-18 -5.55112e-17 5.55112e-17 0 0 3.17207e-17 -9.91271e-19 -0.684165 -0.566473 -0.354756 0.291849 0.266968 0.069055 -0.769386 0.576199 -0.40065 -0.508491 -0.486044 -0.0351231 0.0577405 -0.610989 -1.28949 -1.97868 -1.13124 0.42161 0.83176 -3.18201 3 3 6 3 3 6 
ITEM: TIMESTEP
330000
ITEM: NUMBER OF ENTRIES
1
ITEM: BOX BOUNDS pp pp pp
-25 35
-25 25
-25 25
ITEM: ENTRIES c_com_1[1] c_com_1[2] c_com_1[3] c_com_2[1] c_com_2[2] c_com_2[3] c_vel_1[1] c_vel_1[2] c_vel_1[3] c_vel_2[1] c_vel_2[2] c_vel_2[3] c_q_1[1] c_q_1[2] c_q_1[3] c_q_1[4] c_q_2[1] c_q_2[2] c_q_2[3] c_q_2[4] c_av_1[1] c_av_1[2] c_av_1[3] c_av_2[1] c_av_2[2] c_av_2[3] c_am_1[1] c_am_1[2] c_am_1[3] c_am_2[1] c_am_2[2] c_am_2[3] c_i_1[1] c_i_1[2] c_i_1[3] c_i_2[1] c_i_2[2] c_i_2[3] 
-1.83187e-16 1.83187e-16 0 10 1.04678e-16 -3.27119e-18 -5.55112e-17 5.55112e-17 0 0 3.17207e-17 -9.91271e-19 -0.69411 -0.563763 -0.367916 0.25499 0.265322 0.0611725 -0.787588 0.552781 -0.387742 -0.514608 -0.490058 -0.0452396 0.0705879 -0.608971 -1.28949 -1.97868 -1.13124 0.42161 0.83176 -3.18201 3 3 6 3 3 6 
ITEM: TIMESTEP
340000
ITEM: NUMBER OF ENTRIES
1
ITEM: BOX BOUNDS pp pp pp
-25 35
-25 25
-25 25
ITEM: ENTRIES c_com_1[1] c_com_1[2] c_com_1[3] c_com_2[1] c_com_2[2] c_com_2[3] c_vel_1[1] c_vel_1[2] c_vel_1[3] c_vel_2[1] c_vel_2[2] c_vel_2[3] c_q_1[1] c_q_1[2] c_q_1[3] c_q_1[4] c_q_2[1] c_q_2[2] c_q_2[3] c_q_2[4] c_av_1[1] c_av_1[2] c_av_1[3] c_av_2[1] c_av_2[2] c_av_2[3] c_am_1[1] c_am_1[2] c_am_1[3] c_am_2[1] c_am_2[2] c_am_2[3] c_i_1[1] c_i_1[2] c_i_1[3] c_i_2[1] c_i_2[2] c_i_2[3] 
-1.88738e-16 1.88738e-16 0 10 1.0785e-16 -3.37032e-18 -5.55112e-17 5.55112e-17 0 0 3.17207e-17 -9.91271e-19 -0.702733 -0.559855 -0.381105 0.217916 0.262634 0.0532612 -0.80519 0.529013 -0.374848 -0.521361 -0.492944 -0.0538786 0.0843995 -0.606506 -1.28949 -1.97868 -1.13124 0.42161 0.83176 -3.18201 3 3 6 3 3 6 
ITEM: TIMESTEP
350000
ITEM: NUMBER OF ENTRIES
1
ITEM: BOX BOUNDS pp pp pp
-25 35
-25 25
-25 25
ITEM: ENTRIES c_com_1[1] c_com_1[2] c_com_1[3] c_com_2[1] c_com_2[2] c_com_2[3] c_vel_1[1] c_vel_1[2] c_vel_1[3] c_vel_2[1] c_vel_2[2] c_vel_2[3] c_q_1[1] c_q_1[2] c_q_1[3] c_q_1[4] c_q_2[1] c_q_2[2] c_q_2[3] c_q_2[4] c_av_1[1] c_av_1[2] c_av_1[3] c_av_2[1] c_av_2[2] c_av_2[3] c_am_1[1] c_am_1[2] c_am_1[3] c_am_2[1] c_am_2[2] c_am_2[3] c_i_1[1] c_i_1[2] c_i_1[3] c_i_2[1] c_i_2[2] c_i_2[3] 
-1.94289e-16 1.94289e-16 0 10 1.11022e-16 -3.46945e-18 -5.55112e-17 5.55112e-17 0 0 3.17207e-17 -9.91271e-19 -0.709995 -0.554781 -0.394303 0.180696 0.25891 0.0453947 -0.822169 0.504919 -0.362068 -0.528697 -0.49468 -0.0609347 0.0990067 -0.603622 -1.28949 -1.97868 -1.13124 0.42161 0.83176 -3.18201 3 3 6 3 3 6 
ITEM: TIMESTEP
360000
ITEM: NUMBER OF ENTRIES
1
ITEM: BOX BOUNDS pp pp pp
-25 35
-25 25
-25 25
ITEM: ENTRIES c_com_1[1] c_com_1[2] c_com_1[3] c_com_2[1] c_com_2[2] c_com_2[3] c_vel_1[1] c_vel_1[2] c_vel_1[3] c_vel_2[1] c_vel_2[2] c_vel_2[3] c_q_1[1] c_q_1[2] c_q_1[3] c_q_1[4] c_q_2[1] c_q_2[2] c_q_2[3] c_q_2[4] c_av_1[1] c_av_1[2] c_av_1[3] c_av_2[1] c_av_2[2] c_av_2[3] c_am_1[1] c_am_1[2] c_am_1[3] c_am_2[1] c_am_2[2] c_am_2[3] c_i_1[1] c_i_1[2] c_i_1[3] c_i_2[1] c_i_2[2] c_i_2[3] 
-1.9984e-16 1.9984e-16 0 10 1.14194e-16 -3.56857e-18 -5.55112e-17 5.55112e-17 0 0 3.17207e-17 -9.91271e-19 -0.715861 -0.548575 -0.407487 0.143396 0.254163 0.0376462 -0.838501 0.480521 -0.349498 -0.536562 -0.495252 -0.0663218 0.114231 -0.600357 -1.28949 -1.97868 -1.13124 0.42161 0.83176 -3.18201 3 3 6 3 3 6 
ITEM: TIMESTEP
370000
ITEM: NUMBER OF ENTRIES
1
ITEM: BOX BOUNDS pp pp pp
-25 35
-25 25
-25 25
ITEM: ENTRIES c_com_1[1] c_com_1[2] c_com_1[3] c_com_2[1] c_com_2[2] c_com_2[3] c_vel_1[1] c_vel_1[2] c_vel_1[3] c_vel_2[1] c_vel_2[2] c_vel_2[3] c_q_1[1] c_q_1[2] c_q_1[3] c_q_1[4] c_q_2[1] c_q_2[2] c_q_2[3] c_q_2[4] c_av_1[1] c_av_1[2] c_av_1[3] c_av_2[1] c_av_2[2] c_av_2[3] c_am_1[1] c_am_1[2] c_am_1[3] c_am_2[1] c_am_2[2] c_am_2[3] c_i_1[1] c_i_1[2] c_i_1[3] c_i_2[1] c_i_2[2] c_i_2[3] 