ITEM: TIMESTEP
0
ITEM: NUMBER OF ATOMS
14
ITEM: BOX BOUNDS pp pp pp
-2.5000000000000000e+01 3.5000000000000000e+01
-2.5000000000000000e+01 2.5000000000000000e+01
-2.5000000000000000e+01 2.5000000000000000e+01
ITEM: ATOMS id type x y z 
5 1 -0.5 -0.866025 0 
6 1 0.5 -0.866025 0 
12 1 9.5 -0.866025 0 
13 1 10.5 -0.866025 0 
4 1 -1 0 0 
7 1 0 0 0 
1 1 1 0 0 
11 1 9 0 0 
14 1 10 0 0 
8 1 11 0 0 
3 1 -0.5 0.866025 0 
2 1 0.5 0.866025 0 
10 1 9.5 0.866025 0 
9 1 10.5 0.866025 0 
ITEM: TIMESTEP
10000
ITEM: NUMBER OF ATOMS
14
ITEM: BOX BOUNDS pp pp pp
-2.5000000000000000e+01 3.5000000000000000e+01
-2.5000000000000000e+01 2.5000000000000000e+01
-2.5000000000000000e+01 2.5000000000000000e+01
ITEM: ATOMS id type x y z 
5 1 -0.516393 -0.856341 0.00424106 
6 1 0.481282 -0.873756 0.0701255 
12 1 9.45481 -0.838312 0.0016909 
13 1 10.453 -0.891114 -0.026017 
4 1 -0.997675 0.0174149 -0.0658845 
7 1 -5.55112e-18 5.55112e-18 0 
1 1 0.997675 -0.0174149 0.0658845 
11 1 9.00178 0.0528025 0.0277079 
14 1 10 3.17207e-18 -9.91271e-20 
8 1 10.9982 -0.0528025 -0.0277079 
3 1 -0.481282 0.873756 -0.0701255 
2 1 0.516393 0.856341 -0.00424106 
10 1 9.54697 0.891114 0.026017 
9 1 10.5452 0.838312 -0.0016909 
ITEM: TIMESTEP
20000
ITEM: NUMBER OF ATOMS
14
ITEM: BOX BOUNDS pp pp pp
-2.5000000000000000e+01 3.5000000000000000e+01
-2.5000000000000000e+01 2.5000000000000000e+01
-2.5000000000000000e+01 2.5000000000000000e+01
ITEM: ATOMS id type x y z 
5 1 -0.532969 -0.846093 0.00844365 
6 1 0.457856 -0.877968 0.139787 
12 1 9.41116 -0.808241 0.00337727 
13 1 10.4041 -0.913243 -0.0519349 
4 1 -0.990824 0.0318752 -0.131343 
7 1 -1.11022e-17 1.11022e-17 0 
1 1 0.990824 -0.0318752 0.131343 
11 1 9.00707 0.105002 0.0553121 
14 1 10 6.34413e-18 -1.98254e-19 
8 1 10.9929 -0.105002 -0.0553121 
3 1 -0.457856 0.877968 -0.139787 
2 1 0.532969 0.846093 -0.00844365 
10 1 9.59591 0.913243 0.0519349 
9 1 10.5888 0.808241 -0.00337727 
ITEM: TIMESTEP
30000
ITEM: NUMBER OF ATOMS
14
ITEM: BOX BOUNDS pp pp pp
-2.5000000000000000e+01 3.5000000000000000e+01
-2.5000000000000000e+01 2.5000000000000000e+01
-2.5000000000000000e+01 2.5000000000000000e+01
ITEM: ATOMS id type x y z 
5 1 -0.549799 -0.835203 0.0125529 
6 1 0.429856 -0.87849 0.208517 
12 1 9.36912 -0.775866 0.00505747 
13 1 10.3533 -0.932264 -0.0776536 
4 1 -0.979655 0.0432871 -0.195964 
7 1 -1.66533e-17 1.66533e-17 0 
1 1 0.979655 -0.0432871 0.195964 
11 1 9.01578 0.156398 0.082711 
14 1 10 9.5162e-18 -2.97381e-19 
8 1 10.9842 -0.156398 -0.082711 
3 1 -0.429856 0.87849 -0.208517 
2 1 0.549799 0.835203 -0.0125529 
10 1 9.64665 0.932264 0.0776536 
9 1 10.6309 0.775866 -0.00505747 
ITEM: TIMESTEP
40000
ITEM: NUMBER OF ATOMS
14
ITEM: BOX BOUNDS pp pp pp
-2.5000000000000000e+01 3.5000000000000000e+01
-2.5000000000000000e+01 2.5000000000000000e+01
-2.5000000000000000e+01 2.5000000000000000e+01
ITEM: ATOMS id type x y z 
5 1 -0.566944 -0.823591 0.0164968 
6 1 0.39746 -0.875176 0.275848 
12 1 9.32879 -0.741237 0.00673292 
13 1 10.301 -0.94804 -0.103073 
4 1 -0.964404 0.051585 -0.259352 
7 1 -2.22045e-17 2.22045e-17 0 
1 1 0.964404 -0.051585 0.259352 
11 1 9.0278 0.206803 0.109806 
14 1 10 1.26883e-17 -3.96508e-19 
8 1 10.9722 -0.206803 -0.109806 
3 1 -0.39746 0.875176 -0.275848 
2 1 0.566944 0.823591 -0.0164968 
10 1 9.69901 0.94804 0.103073 
9 1 10.6712 0.741237 -0.00673292 
ITEM: TIMESTEP
50000
ITEM: NUMBER OF ATOMS
14
ITEM: BOX BOUNDS pp pp pp
-2.5000000000000000e+01 3.5000000000000000e+01
-2.5000000000000000e+01 2.5000000000000000e+01
-2.5000000000000000e+01 2.5000000000000000e+01
ITEM: ATOMS id type x y z 
5 1 -0.584452 -0.811177 0.0201867 
6 1 0.360883 -0.867909 0.341316 
12 1 9.29025 -0.704406 0.00840791 
13 1 10.2472 -0.960452 -0.128094 
4 1 -0.945335 0.0567319 -0.32113 
7 1 -2.77556e-17 2.77556e-17 0 
1 1 0.945335 -0.0567319 0.32113 
11 1 9.04302 0.256047 0.136502 
14 1 10 1.58603e-17 -4.95635e-19 
8 1 10.957 -0.256047 -0.136502 
3 1 -0.360883 0.867909 -0.341316 
2 1 0.584452 0.811177 -0.0201867 
10 1 9.75277 0.960452 0.128094 
9 1 10.7097 0.704406 -0.00840791 
ITEM: TIMESTEP
60000
ITEM: NUMBER OF ATOMS
14
ITEM: BOX BOUNDS pp pp pp
-2.5000000000000000e+01 3.5000000000000000e+01
-2.5000000000000000e+01 2.5000000000000000e+01
-2.5000000000000000e+01 2.5000000000000000e+01
ITEM: ATOMS id type x y z 
5 1 -0.602354 -0.797883 0.0235194 
6 1 0.320377 -0.856601 0.404466 
12 1 9.2536 -0.665425 0.0100893 
13 1 10.1923 -0.969398 -0.15262 
4 1 -0.922731 0.0587185 -0.380946 
7 1 -3.33067e-17 3.33067e-17 0 
1 1 0.922731 -0.0587185 0.380946 
11 1 9.06132 0.303973 0.162709 
14 1 10 1.90324e-17 -5.94762e-19 
8 1 10.9387 -0.303973 -0.162709 
3 1 -0.320377 0.856601 -0.404466 
2 1 0.602354 0.797883 -0.0235194 
10 1 9.80771 0.969398 0.15262 
9 1 10.7464 0.665425 -0.0100893 
ITEM: TIMESTEP
70000
ITEM: NUMBER OF ATOMS
14
ITEM: BOX BOUNDS pp pp pp
-2.5000000000000000e+01 3.5000000000000000e+01
-2.5000000000000000e+01 2.5000000000000000e+01
-2.5000000000000000e+01 2.5000000000000000e+01
ITEM: ATOMS id type x y z 
5 1 -0.620666 -0.783631 0.0263779 
6 1 0.276232 -0.841194 0.464853 
12 1 9.21895 -0.624351 0.011786 
13 1 10.1364 -0.974795 -0.176555 
4 1 -0.896898 0.0575632 -0.438475 
7 1 -3.88578e-17 3.88578e-17 0 
1 1 0.896898 -0.0575632 0.438475 
11 1 9.08255 0.350443 0.188341 
14 1 10 2.22045e-17 -6.93889e-19 
8 1 10.9175 -0.350443 -0.188341 
3 1 -0.276232 0.841194 -0.464853 
2 1 0.620666 0.783631 -0.0263779 
10 1 9.8636 0.974795 0.176555 
9 1 10.7811 0.624351 -0.011786 
ITEM: TIMESTEP
80000
ITEM: NUMBER OF ATOMS
14
ITEM: BOX BOUNDS pp pp pp
-2.5000000000000000e+01 3.5000000000000000e+01
-2.5000000000000000e+01 2.5000000000000000e+01
-2.5000000000000000e+01 2.5000000000000000e+01
ITEM: ATOMS id type x y z 
5 1 -0.639388 -0.768351 0.0286332 
6 1 0.22877 -0.821662 0.522051 
12 1 9.18638 -0.581244 0.0135088 
13 1 10.0798 -0.97658 -0.199807 
4 1 -0.868157 0.0533104 -0.493417 
7 1 -4.44089e-17 4.44089e-17 0 
1 1 0.868157 -0.0533104 0.493417 
11 1 9.10658 0.395335 0.213316 
14 1 10 2.53765e-17 -7.93016e-19 
8 1 10.8934 -0.395335 -0.213316 
3 1 -0.22877 0.821662 -0.522051 
2 1 0.639388 0.768351 -0.0286332 
10 1 9.92019 0.97658 0.199807 
9 1 10.8136 0.581244 -0.0135088 
ITEM: TIMESTEP
90000
ITEM: NUMBER OF ATOMS
14
ITEM: BOX BOUNDS pp pp pp
-2.5000000000000000e+01 3.5000000000000000e+01
-2.5000000000000000e+01 2.5000000000000000e+01
-2.5000000000000000e+01 2.5000000000000000e+01
ITEM: ATOMS id type x y z 
4 1 -0.836842 0.0460305 -0.545505 
3 1 -0.178344 0.798009 -0.575652 
5 1 -0.658498 -0.751978 0.0301469 
12 1 9.15603 -0.536172 0.0152697 
13 1 10.0228 -0.974714 -0.222291 
7 1 -4.996e-17 4.996e-17 0 
11 1 9.13326 0.438542 0.237561 
14 1 10 2.85486e-17 -8.92144e-19 
8 1 10.8667 -0.438542 -0.237561 
2 1 0.658498 0.751978 -0.0301469 
10 1 9.97723 0.974714 0.222291 
9 1 10.844 0.536172 -0.0152697 
6 1 0.178344 -0.798009 0.575652 
1 1 0.836842 -0.0460305 0.545505 
ITEM: TIMESTEP
100000
ITEM: NUMBER OF ATOMS
14
ITEM: BOX BOUNDS pp pp pp
-2.5000000000000000e+01 3.5000000000000000e+01
-2.5000000000000000e+01 2.5000000000000000e+01
-2.5000000000000000e+01 2.5000000000000000e+01
ITEM: ATOMS id type x y z 
4 1 -0.803296 0.0358175 -0.594502 
3 1 -0.125338 0.770274 -0.625275 
5 1 -0.677958 -0.734457 0.0307726 
12 1 9.128 -0.48921 0.0170811 
13 1 9.96556 -0.969183 -0.243923 
8 1 10.8376 -0.479973 -0.261004 
7 1 -5.55112e-17 5.55112e-17 0 
14 1 10 3.17207e-17 -9.91271e-19 
2 1 0.677958 0.734457 -0.0307726 
11 1 9.16244 0.479973 0.261004 
10 1 10.0344 0.969183 0.243923 
9 1 10.872 0.48921 -0.0170811 
6 1 0.125338 -0.770274 0.625275 
1 1 0.803296 -0.0358175 0.594502 
ITEM: TIMESTEP
110000
ITEM: NUMBER OF ATOMS
14
ITEM: BOX BOUNDS pp pp pp
-2.5000000000000000e+01 3.5000000000000000e+01
-2.5000000000000000e+01 2.5000000000000000e+01
-2.5000000000000000e+01 2.5000000000000000e+01
ITEM: ATOMS id type x y z 
4 1 -0.767867 0.022788 -0.640204 
3 1 -0.07016 0.738528 -0.670563 
5 1 -0.697707 -0.71574 0.0303586 
12 1 9.10242 -0.440445 0.0189556 
13 1 9.90843 -0.959993 -0.264627 
8 1 10.806 -0.519548 -0.283583 
7 1 -6.10623e-17 6.10623e-17 0 
14 1 10 3.48927e-17 -1.0904e-18 
2 1 0.697707 0.71574 -0.0303586 
11 1 9.19399 0.519548 0.283583 
10 1 10.0916 0.959993 0.264627 
9 1 10.8976 0.440445 -0.0189556 
6 1 0.07016 -0.738528 0.670563 
1 1 0.767867 -0.022788 0.640204 
ITEM: TIMESTEP
120000
ITEM: NUMBER OF ATOMS
14
ITEM: BOX BOUNDS pp pp pp
-2.5000000000000000e+01 3.5000000000000000e+01
-2.5000000000000000e+01 2.5000000000000000e+01
-2.5000000000000000e+01 2.5000000000000000e+01
ITEM: ATOMS id type x y z 
4 1 -0.730906 0.00707948 -0.682442 
3 1 -0.0132396 0.702873 -0.711192 
5 1 -0.717666 -0.695794 0.0287506 
13 1 9.85165 -0.947179 -0.284333 
8 1 10.7722 -0.557204 -0.305238 
7 1 -6.66134e-17 6.66134e-17 0 
12 1 9.07941 -0.389974 0.0209054 
14 1 10 3.80648e-17 -1.18952e-18 
9 1 10.9206 0.389974 -0.0209054 
2 1 0.717666 0.695794 -0.0287506 
11 1 9.22776 0.557204 0.305238 
10 1 10.1483 0.947179 0.284333 
6 1 0.0132396 -0.702873 0.711192 
1 1 0.730906 -0.00707948 0.682442 
ITEM: TIMESTEP
130000
ITEM: NUMBER OF ATOMS
14
ITEM: BOX BOUNDS pp pp pp
-2.5000000000000000e+01 3.5000000000000000e+01
-2.5000000000000000e+01 2.5000000000000000e+01
-2.5000000000000000e+01 2.5000000000000000e+01
ITEM: ATOMS id type x y z 
4 1 -0.692762 -0.011152 -0.72108 
3 1 0.0449738 0.663444 -0.746873 
5 1 -0.737736 -0.674596 0.0257934 
13 1 9.79549 -0.930795 -0.302976 
8 1 10.7364 -0.592886 -0.325917 
7 1 -7.21645e-17 7.21645e-17 0 
12 1 9.0591 -0.337909 0.022941 
14 1 10 4.12369e-17 -1.28865e-18 
9 1 10.9409 0.337909 -0.022941 
2 1 0.737736 0.674596 -0.0257934 
11 1 9.26361 0.592886 0.325917 
10 1 10.2045 0.930795 0.302976 
6 1 -0.0449738 -0.663444 0.746873 
1 1 0.692762 0.011152 0.72108 
ITEM: TIMESTEP
140000
ITEM: NUMBER OF ATOMS
14
ITEM: BOX BOUNDS pp pp pp
-2.5000000000000000e+01 3.5000000000000000e+01
-2.5000000000000000e+01 2.5000000000000000e+01
-2.5000000000000000e+01 2.5000000000000000e+01
ITEM: ATOMS id type x y z 
4 1 -0.653782 -0.0317337 -0.756017 
3 1 0.104016 0.620406 -0.777352 
5 1 -0.757798 -0.65214 0.0213348 
13 1 9.7402 -0.910923 -0.3205 
8 1 10.6986 -0.62655 -0.345572 
7 1 -7.77156e-17 7.77156e-17 0 
12 1 9.04161 -0.284373 0.0250717 
14 1 10 4.44089e-17 -1.38778e-18 
9 1 10.9584 0.284373 -0.0250717 
2 1 0.757798 0.65214 -0.0213348 
11 1 9.30142 0.62655 0.345572 
10 1 10.2598 0.910923 0.3205 
6 1 -0.104016 -0.620406 0.777352 
1 1 0.653782 0.0317337 0.756017 
ITEM: TIMESTEP
150000
ITEM: NUMBER OF ATOMS
14
ITEM: BOX BOUNDS pp pp pp
-2.5000000000000000e+01 3.5000000000000000e+01
-2.5000000000000000e+01 2.5000000000000000e+01
-2.5000000000000000e+01 2.5000000000000000e+01
ITEM: ATOMS id type x y z 
4 1 -0.614301 -0.0544781 -0.787189 
3 1 0.163414 0.573955 -0.802416 
5 1 -0.777715 -0.628433 0.0152271 
13 1 9.68603 -0.887665 -0.336855 
8 1 10.659 -0.658157 -0.36416 
7 1 -8.32667e-17 8.32667e-17 0 
12 1 9.02708 -0.229508 0.0273042 
14 1 10 4.7581e-17 -1.48691e-18 
9 1 10.9729 0.229508 -0.0273042 
2 1 0.777715 0.628433 -0.0152271 
11 1 9.34105 0.658157 0.36416 
10 1 10.314 0.887665 0.336855 
6 1 -0.163414 -0.573955 0.802416 
1 1 0.614301 0.0544781 0.787189 
ITEM: TIMESTEP
160000
ITEM: NUMBER OF ATOMS
14
ITEM: BOX BOUNDS pp pp pp
-2.5000000000000000e+01 3.5000000000000000e+01
-2.5000000000000000e+01 2.5000000000000000e+01
-2.5000000000000000e+01 2.5000000000000000e+01
ITEM: ATOMS id type x y z 
4 1 -0.574646 -0.0791859 -0.814562 
3 1 0.222684 0.524313 -0.821893 
5 1 -0.79733 -0.603499 0.00733055 
13 1 9.63322 -0.861145 -0.351999 
8 1 10.6176 -0.687677 -0.381642 
7 1 -8.88178e-17 8.88178e-17 0 
12 1 9.01561 -0.173468 0.0296423 
14 1 10 5.07531e-17 -1.58603e-18 
9 1 10.9844 0.173468 -0.0296423 
2 1 0.79733 0.603499 -0.00733055 
11 1 9.38238 0.687677 0.381642 
10 1 10.3668 0.861145 0.351999 
6 1 -0.222684 -0.524313 0.821893 
1 1 0.574646 0.0791859 0.814562 
ITEM: TIMESTEP
170000
ITEM: NUMBER OF ATOMS
14
ITEM: BOX BOUNDS pp pp pp
-2.5000000000000000e+01 3.5000000000000000e+01
-2.5000000000000000e+01 2.5000000000000000e+01
-2.5000000000000000e+01 2.5000000000000000e+01
ITEM: ATOMS id type x y z 
4 1 -0.53513 -0.105648 -0.838137 
3 1 0.281342 0.471731 -0.835653 
5 1 -0.816473 -0.577379 -0.00248429 
13 1 9.58201 -0.831505 -0.365897 
8 1 10.5747 -0.715082 -0.397984 
7 1 -9.4369e-17 9.4369e-17 0 
12 1 9.00732 -0.116424 0.0320867 
14 1 10 5.39251e-17 -1.68516e-18 
9 1 10.9927 0.116424 -0.0320867 
2 1 0.816473 0.577379 0.00248429 
11 1 9.42531 0.715082 0.397984 
10 1 10.418 0.831505 0.365897 
6 1 -0.281342 -0.471731 0.835653 
1 1 0.53513 0.105648 0.838137 
ITEM: TIMESTEP
180000
ITEM: NUMBER OF ATOMS
14
ITEM: BOX BOUNDS pp pp pp
-2.5000000000000000e+01 3.5000000000000000e+01
-2.5000000000000000e+01 2.5000000000000000e+01
-2.5000000000000000e+01 2.5000000000000000e+01
ITEM: ATOMS id type x y z 
4 1 -0.496049 -0.133647 -0.857947 
3 1 0.338907 0.416483 -0.843614 
5 1 -0.834956 -0.55013 -0.0143339 
13 1 9.53259 -0.798907 -0.378521 
8 1 10.5303 -0.740344 -0.413156 
7 1 -9.99201e-17 9.99201e-17 0 
12 1 9.00232 -0.0585622 0.0346347 
14 1 10 5.70972e-17 -1.78429e-18 
9 1 10.9977 0.0585622 -0.0346347 
2 1 0.834956 0.55013 0.0143339 
11 1 9.46972 0.740344 0.413156 
10 1 10.4674 0.798907 0.378521 
6 1 -0.338907 -0.416483 0.843614 
1 1 0.496049 0.133647 0.857947 
ITEM: TIMESTEP
190000
ITEM: NUMBER OF ATOMS
14
ITEM: BOX BOUNDS pp pp pp
-2.5000000000000000e+01 3.5000000000000000e+01
-2.5000000000000000e+01 2.5000000000000000e+01
-2.5000000000000000e+01 2.5000000000000000e+01
ITEM: ATOMS id type x y z 
4 1 -0.45768 -0.162962 -0.874055 
3 1 0.3949 0.358866 -0.845736 
5 1 -0.852581 -0.521828 -0.0283193 
13 1 9.48517 -0.763525 -0.38985 
8 1 10.4845 -0.76344 -0.42713 
7 1 -1.05471e-16 1.05471e-16 0 
12 1 9.0007 -8.44608e-05 0.0372793 
14 1 10 6.02692e-17 -1.88341e-18 
9 1 10.9993 8.44608e-05 -0.0372793 
2 1 0.852581 0.521828 0.0283193 
11 1 9.51552 0.76344 0.42713 
10 1 10.5148 0.763525 0.38985 
6 1 -0.3949 -0.358866 0.845736 
1 1 0.45768 0.162962 0.874055 
ITEM: TIMESTEP
200000
ITEM: NUMBER OF ATOMS
14
ITEM: BOX BOUNDS pp pp pp
-2.5000000000000000e+01 3.5000000000000000e+01
-2.5000000000000000e+01 2.5000000000000000e+01
-2.5000000000000000e+01 2.5000000000000000e+01
ITEM: ATOMS id type x y z 
4 1 -0.420281 -0.193368 -0.886551 
3 1 0.448855 0.299197 -0.842027 
5 1 -0.869136 -0.492565 -0.0445236 
13 1 9.43992 -0.725548 -0.39987 
8 1 10.4374 -0.784342 -0.43988 
7 1 -1.11022e-16 1.11022e-16 0 
12 1 9.00253 0.0587947 0.04001 
14 1 10 6.34413e-17 -1.98254e-18 
9 1 10.9975 -0.0587947 -0.04001 
2 1 0.869136 0.492565 0.0445236 
11 1 9.56261 0.784342 0.43988 
10 1 10.5601 0.725548 0.39987 
6 1 -0.448855 -0.299197 0.842027 
1 1 0.420281 0.193368 0.886551 
ITEM: TIMESTEP
210000
ITEM: NUMBER OF ATOMS
14
ITEM: BOX BOUNDS pp pp pp
-2.5000000000000000e+01 3.5000000000000000e+01
-2.5000000000000000e+01 2.5000000000000000e+01
-2.5000000000000000e+01 2.5000000000000000e+01
ITEM: ATOMS id type x y z 
4 1 -0.384084 -0.224642 -0.895553 
3 1 0.500318 0.23781 -0.832543 
5 1 -0.884402 -0.462452 -0.06301 
13 1 9.397 -0.685174 -0.408573 
8 1 10.3891 -0.803022 -0.451385 
7 1 -1.16573e-16 1.16573e-16 0 
12 1 9.00789 0.117848 0.042812 
14 1 10 6.66134e-17 -2.08167e-18 
9 1 10.9921 -0.117848 -0.042812 
2 1 0.884402 0.462452 0.06301 
11 1 9.61089 0.803022 0.451385 
10 1 10.603 0.685174 0.408573 
6 1 -0.500318 -0.23781 0.832543 
1 1 0.384084 0.224642 0.895553 
ITEM: TIMESTEP
220000
ITEM: NUMBER OF ATOMS
14
ITEM: BOX BOUNDS pp pp pp
-2.5000000000000000e+01 3.5000000000000000e+01
-2.5000000000000000e+01 2.5000000000000000e+01
-2.5000000000000000e+01 2.5000000000000000e+01
ITEM: ATOMS id type x y z 
4 1 -0.3493 -0.256561 -0.901202 
3 1 0.548855 0.175055 -0.817383 
5 1 -0.898155 -0.431616 -0.0838198 
13 1 9.35655 -0.642609 -0.415956 
8 1 10.3397 -0.819446 -0.461622 
7 1 -1.22125e-16 1.22125e-16 0 
12 1 9.01682 0.176836 0.0456666 
14 1 10 6.97854e-17 -2.1808e-18 
9 1 10.9832 -0.176836 -0.0456666 
2 1 0.898155 0.431616 0.0838198 
11 1 9.66027 0.819446 0.461622 
10 1 10.6435 0.642609 0.415956 
6 1 -0.548855 -0.175055 0.817383 
1 1 0.3493 0.256561 0.901202 
ITEM: TIMESTEP
230000
ITEM: NUMBER OF ATOMS
14
ITEM: BOX BOUNDS pp pp pp
-2.5000000000000000e+01 3.5000000000000000e+01
-2.5000000000000000e+01 2.5000000000000000e+01
-2.5000000000000000e+01 2.5000000000000000e+01
ITEM: ATOMS id type x y z 
4 1 -0.316113 -0.288908 -0.903662 
3 1 0.594051 0.111291 -0.796692 
5 1 -0.910164 -0.400199 -0.10697 
13 1 9.31867 -0.598065 -0.422022 
8 1 10.2893 -0.833578 -0.470573 
7 1 -1.27676e-16 1.27676e-16 0 
12 1 9.02934 0.235514 0.0485513 
14 1 10 7.29575e-17 -2.27992e-18 
9 1 10.9707 -0.235514 -0.0485513 
2 1 0.910164 0.400199 0.10697 
11 1 9.71068 0.833578 0.470573 
10 1 10.6813 0.598065 0.422022 
6 1 -0.594051 -0.111291 0.796692 
1 1 0.316113 0.288908 0.903662 
ITEM: TIMESTEP
240000
ITEM: NUMBER OF ATOMS
14
ITEM: BOX BOUNDS pp pp pp
-2.5000000000000000e+01 3.5000000000000000e+01
-2.5000000000000000e+01 2.5000000000000000e+01
-2.5000000000000000e+01 2.5000000000000000e+01
ITEM: ATOMS id type x y z 
8 1 10.238 -0.845378 -0.478219 
4 1 -0.28468 -0.321472 -0.903113 
3 1 0.635519 0.0468871 -0.77066 
13 1 9.28346 -0.551753 -0.426779 
5 1 -0.9202 -0.368359 -0.132453 
7 1 -1.33227e-16 1.33227e-16 0 
2 1 0.9202 0.368359 0.132453 
12 1 9.04546 0.293625 0.05144 
14 1 10 7.61296e-17 -2.37905e-18 
9 1 10.9545 -0.293625 -0.05144 
10 1 10.7165 0.551753 0.426779 
6 1 -0.635519 -0.0468871 0.77066 
1 1 0.28468 0.321472 0.903113 
11 1 9.762 0.845378 0.478219 
ITEM: TIMESTEP
250000
ITEM: NUMBER OF ATOMS
14
ITEM: BOX BOUNDS pp pp pp
-2.5000000000000000e+01 3.5000000000000000e+01
-2.5000000000000000e+01 2.5000000000000000e+01
-2.5000000000000000e+01 2.5000000000000000e+01
ITEM: ATOMS id type x y z 
8 1 10.1858 -0.854801 -0.484541 
4 1 -0.255134 -0.354051 -0.899753 
3 1 0.672901 -0.0177809 -0.739519 
13 1 9.25101 -0.503887 -0.430237 
5 1 -0.928034 -0.33627 -0.160234 
7 1 -1.38778e-16 1.38778e-16 0 
2 1 0.928034 0.33627 0.160234 
12 1 9.06517 0.350914 0.0543036 
14 1 10 7.93016e-17 -2.47818e-18 
9 1 10.9348 -0.350914 -0.0543036 
10 1 10.749 0.503887 0.430237 
6 1 -0.672901 0.0177809 0.739519 
1 1 0.255134 0.354051 0.899753 
11 1 9.81416 0.854801 0.484541 
ITEM: TIMESTEP
260000
ITEM: NUMBER OF ATOMS
14
ITEM: BOX BOUNDS pp pp pp
-2.5000000000000000e+01 3.5000000000000000e+01
-2.5000000000000000e+01 2.5000000000000000e+01
-2.5000000000000000e+01 2.5000000000000000e+01
ITEM: ATOMS id type x y z 
8 1 10.1329 -0.861797 -0.489523 
4 1 -0.227576 -0.386451 -0.893792 
3 1 0.705868 -0.0823368 -0.703541 
13 1 9.22136 -0.454678 -0.432412 
5 1 -0.933445 -0.304114 -0.190251 
7 1 -1.44329e-16 1.44329e-16 0 
2 1 0.933445 0.304114 0.190251 
12 1 9.08841 0.407119 0.0571103 
14 1 10 8.24737e-17 -2.5773e-18 
9 1 10.9116 -0.407119 -0.0571103 
10 1 10.7786 0.454678 0.432412 
6 1 -0.705868 0.0823368 0.703541 
1 1 0.227576 0.386451 0.893792 
11 1 9.86706 0.861797 0.489523 
ITEM: TIMESTEP
270000
ITEM: NUMBER OF ATOMS
14
ITEM: BOX BOUNDS pp pp pp
-2.5000000000000000e+01 3.5000000000000000e+01
-2.5000000000000000e+01 2.5000000000000000e+01
-2.5000000000000000e+01 2.5000000000000000e+01
ITEM: ATOMS id type x y z 
8 1 10.0794 -0.866313 -0.493147 
4 1 -0.202086 -0.418494 -0.885451 
3 1 0.73413 -0.146405 -0.663038 
5 1 -0.936216 -0.27209 -0.222413 
7 1 -1.4988e-16 1.4988e-16 0 
2 1 0.936216 0.27209 0.222413 
13 1 9.19455 -0.40433 -0.433321 
12 1 9.11513 0.461984 0.0598259 
14 1 10 8.56458e-17 -2.67643e-18 
9 1 10.8849 -0.461984 -0.0598259 
10 1 10.8055 0.40433 0.433321 
6 1 -0.73413 0.146405 0.663038 
1 1 0.202086 0.418494 0.885451 
11 1 9.92058 0.866313 0.493147 
ITEM: TIMESTEP
280000
ITEM: NUMBER OF ATOMS
14
ITEM: BOX BOUNDS pp pp pp
-2.5000000000000000e+01 3.5000000000000000e+01
-2.5000000000000000e+01 2.5000000000000000e+01
-2.5000000000000000e+01 2.5000000000000000e+01
ITEM: ATOMS id type x y z 
8 1 10.0254 -0.868295 -0.495399 
4 1 -0.178713 -0.450013 -0.874957 
3 1 0.75743 -0.209612 -0.618355 
5 1 -0.936142 -0.240401 -0.256602 
7 1 -1.55431e-16 1.55431e-16 0 
2 1 0.936142 0.240401 0.256602 
13 1 9.17061 -0.353042 -0.432984 
12 1 9.14524 0.515253 0.0624149 
14 1 10 8.88178e-17 -2.77556e-18 
9 1 10.8548 -0.515253 -0.0624149 
10 1 10.8294 0.353042 0.432984 
6 1 -0.75743 0.209612 0.618355 
1 1 0.178713 0.450013 0.874957 
11 1 9.97463 0.868295 0.495399 
ITEM: TIMESTEP
290000
ITEM: NUMBER OF ATOMS
14
ITEM: BOX BOUNDS pp pp pp
-2.5000000000000000e+01 3.5000000000000000e+01
-2.5000000000000000e+01 2.5000000000000000e+01
-2.5000000000000000e+01 2.5000000000000000e+01
ITEM: ATOMS id type x y z 
4 1 -0.157481 -0.480855 -0.862542 
8 1 9.97093 -0.867686 -0.496262 
3 1 0.775554 -0.271595 -0.56987 
9 1 10.8214 -0.566681 -0.064841 
5 1 -0.933035 -0.20926 -0.292671 
7 1 -1.60982e-16 1.60982e-16 0 
2 1 0.933035 0.20926 0.292671 
13 1 9.14955 -0.301005 -0.431421 
14 1 10 9.19899e-17 -2.87468e-18 
10 1 10.8505 0.301005 0.431421 
12 1 9.17862 0.566681 0.064841 
6 1 -0.775554 0.271595 0.56987 
1 1 0.157481 0.480855 0.862542 
11 1 10.0291 0.867686 0.496262 
ITEM: TIMESTEP
300000
ITEM: NUMBER OF ATOMS
14
ITEM: BOX BOUNDS pp pp pp
-2.5000000000000000e+01 3.5000000000000000e+01
-2.5000000000000000e+01 2.5000000000000000e+01
-2.5000000000000000e+01 2.5000000000000000e+01
ITEM: ATOMS id type x y z 
4 1 -0.13839 -0.510886 -0.848436 
8 1 9.91621 -0.86443 -0.495722 
3 1 0.788328 -0.331999 -0.517992 
9 1 10.7849 -0.616028 -0.0670675 
5 1 -0.926718 -0.178887 -0.330444 
7 1 -1.66533e-16 1.66533e-16 0 
2 1 0.926718 0.178887 0.330444 
13 1 9.13135 -0.248402 -0.428654 
14 1 10 9.5162e-17 -2.97381e-18 
10 1 10.8686 0.248402 0.428654 
12 1 9.21514 0.616028 0.0670675 
6 1 -0.788328 0.331999 0.517992 
1 1 0.13839 0.510886 0.848436 
11 1 10.0838 0.86443 0.495722 
ITEM: TIMESTEP
310000
ITEM: NUMBER OF ATOMS
14
ITEM: BOX BOUNDS pp pp pp
-2.5000000000000000e+01 3.5000000000000000e+01
-2.5000000000000000e+01 2.5000000000000000e+01
-2.5000000000000000e+01 2.5000000000000000e+01
ITEM: ATOMS id type x y z 
4 1 -0.121416 -0.539985 -0.832871 
8 1 9.86137 -0.858474 -0.493766 
3 1 0.795621 -0.390483 -0.463153 
9 1 10.7454 -0.663072 -0.0690584 
5 1 -0.917037 -0.149502 -0.369718 
7 1 -1.72085e-16 1.72085e-16 0 
2 1 0.917037 0.149502 0.369718 
13 1 9.11601 -0.195402 -0.424707 
14 1 10 9.8334e-17 -3.07294e-18 
10 1 10.884 0.195402 0.424707 
12 1 9.25464 0.663072 0.0690584 
6 1 -0.795621 0.390483 0.463153 
1 1 0.121416 0.539985 0.832871 
11 1 10.1386 0.858474 0.493766 
ITEM: TIMESTEP
320000
ITEM: NUMBER OF ATOMS
14
ITEM: BOX BOUNDS pp pp pp
-2.5000000000000000e+01 3.5000000000000000e+01
-2.5000000000000000e+01 2.5000000000000000e+01
-2.5000000000000000e+01 2.5000000000000000e+01
ITEM: ATOMS id type x y z 
4 1 -0.106514 -0.568051 -0.816072 
8 1 9.80655 -0.849767 -0.490382 
3 1 0.797345 -0.446722 -0.405808 
9 1 10.7031 -0.7076 -0.0707789 
5 1 -0.90386 -0.121329 -0.410264 
7 1 -1.77636e-16 1.77636e-16 0 
2 1 0.90386 0.121329 0.410264 
13 1 9.10349 -0.142167 -0.419603 
14 1 10 1.01506e-16 -3.17207e-18 
10 1 10.8965 0.142167 0.419603 
12 1 9.29694 0.7076 0.0707789 
6 1 -0.797345 0.446722 0.405808 
1 1 0.106514 0.568051 0.816072 
11 1 10.1934 0.849767 0.490382 
ITEM: TIMESTEP
330000
ITEM: NUMBER OF ATOMS
14
ITEM: BOX BOUNDS pp pp pp
-2.5000000000000000e+01 3.5000000000000000e+01
-2.5000000000000000e+01 2.5000000000000000e+01
-2.5000000000000000e+01 2.5000000000000000e+01
ITEM: ATOMS id type x y z 
4 1 -0.0936178 -0.594998 -0.798257 
8 1 9.75193 -0.838267 -0.48556 
3 1 0.793459 -0.500411 -0.346428 
9 1 10.6581 -0.74942 -0.0721962 
5 1 -0.887076 -0.094587 -0.451828 
7 1 -1.83187e-16 1.83187e-16 0 
2 1 0.887076 0.094587 0.451828 
13 1 9.09378 -0.0888469 -0.413363 
14 1 10 1.04678e-16 -3.27119e-18 
10 1 10.9062 0.0888469 0.413363 
6 1 -0.793459 0.500411 0.346428 
12 1 9.34185 0.74942 0.0721962 
1 1 0.0936178 0.594998 0.798257 
11 1 10.2481 0.838267 0.48556 
ITEM: TIMESTEP
340000
ITEM: NUMBER OF ATOMS
14
ITEM: BOX BOUNDS pp pp pp
-2.5000000000000000e+01 3.5000000000000000e+01
-2.5000000000000000e+01 2.5000000000000000e+01
-2.5000000000000000e+01 2.5000000000000000e+01
ITEM: ATOMS id type x y z 
4 1 -0.0826423 -0.620759 -0.779634 
8 1 9.69766 -0.823936 -0.479293 
3 1 0.783962 -0.551264 -0.285501 
9 1 10.6108 -0.788357 -0.0732801 
5 1 -0.866605 -0.0694949 -0.494132 
7 1 -1.88738e-16 1.88738e-16 0 
2 1 0.866605 0.0694949 0.494132 
13 1 9.08683 -0.0355796 -0.406013 
14 1 10 1.0785e-16 -3.37032e-18 
10 1 10.9132 0.0355796 0.406013 
6 1 -0.783962 0.551264 0.285501 
12 1 9.38916 0.788357 0.0732801 
1 1 0.0826423 0.620759 0.779634 
11 1 10.3023 0.823936 0.479293 
ITEM: TIMESTEP
350000
ITEM: NUMBER OF ATOMS
14
ITEM: BOX BOUNDS pp pp pp
-2.5000000000000000e+01 3.5000000000000000e+01
-2.5000000000000000e+01 2.5000000000000000e+01
-2.5000000000000000e+01 2.5000000000000000e+01
ITEM: ATOMS id type x y z 
4 1 -0.0734877 -0.645285 -0.760399 
8 1 9.64396 -0.806751 -0.471577 
5 1 -0.84239 -0.0462635 -0.536878 
3 1 0.768903 -0.599022 -0.223521 
9 1 10.5614 -0.824257 -0.0740036 
7 1 -1.94289e-16 1.94289e-16 0 
13 1 9.0826 0.0175058 -0.397573 
14 1 10 1.11022e-16 -3.46945e-18 
10 1 10.9174 -0.0175058 0.397573 
6 1 -0.768903 0.599022 0.223521 
12 1 9.43864 0.824257 0.0740036 
2 1 0.84239 0.0462635 0.536878 
1 1 0.0734877 0.645285 0.760399 
11 1 10.356 0.806751 0.471577 
ITEM: TIMESTEP
360000
ITEM: NUMBER OF ATOMS
14
ITEM: BOX BOUNDS pp pp pp
-2.5000000000000000e+01 3.5000000000000000e+01
-2.5000000000000000e+01 2.5000000000000000e+01
-2.5000000000000000e+01 2.5000000000000000e+01
ITEM: ATOMS id type x y z 
4 1 -0.0660399 -0.668544 -0.740735 
8 1 9.591 -0.786698 -0.462411 
5 1 -0.81441 -0.0250953 -0.579747 
3 1 0.74837 -0.643448 -0.160988 
9 1 10.5099 -0.856988 -0.0743436 
7 1 -1.9984e-16 1.9984e-16 0 
13 1 9.08105 0.07029 -0.388068 
14 1 10 1.14194e-16 -3.56857e-18 
10 1 10.9189 -0.07029 0.388068 
6 1 -0.74837 0.643448 0.160988 
12 1 9.49005 0.856988 0.0743436 
2 1 0.81441 0.0250953 0.579747 
1 1 0.0660399 0.668544 0.740735 
11 1 10.409 0.786698 0.462411 
ITEM: TIMESTEP
370000
ITEM: NUMBER OF ATOMS
14
ITEM: BOX BOUNDS pp pp pp
-2.5000000000000000e+01 3.5000000000000000e+01
-2.5000000000000000e+01 2.5000000000000000e+01
-2.5000000000000000e+01 2.5000000000000000e+01
ITEM: ATOMS id type x y z 
4 1 -0.0601738 -0.690518 -0.720808 
8 1 9.539 -0.763779 -0.4518 
5 1 -0.78267 -0.00618183 -0.622406 
3 1 0.722496 -0.684337 -0.0984013 
9 1 10.4568 -0.88644 -0.074281 
7 1 -2.05391e-16 2.05391e-16 0 
13 1 9.08216 0.122662 -0.377519 
14 1 10 1.17366e-16 -3.6677e-18 
10 1 10.9178 -0.122662 0.377519 
6 1 -0.722496 0.684337 0.0984013 
12 1 9.54316 0.88644 0.074281 
2 1 0.78267 0.00618183 0.622406 
1 1 0.0601738 0.690518 0.720808 
11 1 10.461 0.763779 0.4518 
ITEM: TIMESTEP
380000
ITEM: NUMBER OF ATOMS
14
ITEM: BOX BOUNDS pp pp pp
-2.5000000000000000e+01 3.5000000000000000e+01
-2.5000000000000000e+01 2.5000000000000000e+01
-2.5000000000000000e+01 2.5000000000000000e+01
ITEM: ATOMS id type x y z 
4 1 -0.0557552 -0.711209 -0.700766 
8 1 9.48818 -0.73801 -0.43975 
5 1 -0.747211 0.0102989 -0.664507 
3 1 0.691456 -0.721508 -0.0362588 
9 1 10.4023 -0.912527 -0.0738017 
7 1 -2.10942e-16 2.10942e-16 0 
13 1 9.08587 0.174517 -0.365949 
14 1 10 1.20538e-16 -3.76683e-18 
10 1 10.9141 -0.174517 0.365949 
6 1 -0.691456 0.721508 0.0362588 
12 1 9.5977 0.912527 0.0738017 
2 1 0.747211 -0.0102989 0.664507 
1 1 0.0557552 0.711209 0.700766 
11 1 10.5118 0.73801 0.43975 
ITEM: TIMESTEP
390000
ITEM: NUMBER OF ATOMS
14
ITEM: BOX BOUNDS pp pp pp
-2.5000000000000000e+01 3.5000000000000000e+01
-2.5000000000000000e+01 2.5000000000000000e+01
-2.5000000000000000e+01 2.5000000000000000e+01
ITEM: ATOMS id type x y z 
4 1 -0.0526438 -0.730631 -0.68074 
5 1 -0.708106 0.0241843 -0.705691 
3 1 0.655463 -0.754815 0.0249515 
8 1 9.43875 -0.709426 -0.426277 
9 1 10.3466 -0.935184 -0.0728961 
7 1 -2.16493e-16 2.16493e-16 0 
13 1 9.09217 0.225757 -0.353381 
14 1 10 1.23711e-16 -3.86596e-18 
10 1 10.9078 -0.225757 0.353381 
6 1 -0.655463 0.754815 -0.0249515 
12 1 9.65342 0.935184 0.0728961 
11 1 10.5613 0.709426 0.426277 
2 1 0.708106 -0.0241843 0.705691 
1 1 0.0526438 0.730631 0.68074 
ITEM: TIMESTEP
400000
ITEM: NUMBER OF ATOMS
14
ITEM: BOX BOUNDS pp pp pp
-2.5000000000000000e+01 3.5000000000000000e+01
-2.5000000000000000e+01 2.5000000000000000e+01
-2.5000000000000000e+01 2.5000000000000000e+01
ITEM: ATOMS id type x y z 
4 1 -0.0506958 -0.748812 -0.660841 
5 1 -0.665463 0.0353296 -0.745594 
3 1 0.614767 -0.784142 0.0847535 
8 1 9.39094 -0.678082 -0.4114 
9 1 10.2899 -0.95437 -0.07156 
7 1 -2.22045e-16 2.22045e-16 0 
13 1 9.10102 0.276288 -0.33984 
14 1 10 1.26883e-16 -3.96508e-18 
10 1 10.899 -0.276288 0.33984 
6 1 -0.614767 0.784142 -0.0847535 
12 1 9.71008 0.95437 0.07156 
11 1 10.6091 0.678082 0.4114 
2 1 0.665463 -0.0353296 0.745594 
1 1 0.0506958 0.748812 0.660841 
ITEM: TIMESTEP
410000
ITEM: NUMBER OF ATOMS
14
ITEM: BOX BOUNDS pp pp pp
-2.5000000000000000e+01 3.5000000000000000e+01
-2.5000000000000000e+01 2.5000000000000000e+01
-2.5000000000000000e+01 2.5000000000000000e+01
ITEM: ATOMS id type x y z 
4 1 -0.0497663 -0.765793 -0.641159 
5 1 -0.619422 0.0436099 -0.783846 
3 1 0.569656 -0.809403 0.142687 
8 1 9.34497 -0.644051 -0.395145 
9 1 10.2326 -0.970067 -0.0697942 
7 1 -2.27596e-16 2.27596e-16 0 
13 1 9.11238 0.326016 -0.32535 
14 1 10 1.30055e-16 -4.06421e-18 
10 1 10.8876 -0.326016 0.32535 
6 1 -0.569656 0.809403 -0.142687 
12 1 9.76741 0.970067 0.0697942 
11 1 10.655 0.644051 0.395145 
2 1 0.619422 -0.0436099 0.783846 
1 1 0.0497663 0.765793 0.641159 
ITEM: TIMESTEP
420000
ITEM: NUMBER OF ATOMS
14
ITEM: BOX BOUNDS pp pp pp
-2.5000000000000000e+01 3.5000000000000000e+01
-2.5000000000000000e+01 2.5000000000000000e+01
-2.5000000000000000e+01 2.5000000000000000e+01
ITEM: ATOMS id type x y z 
4 1 -0.0497117 -0.781625 -0.621764 
5 1 -0.570157 0.0489217 -0.820078 
3 1 0.520446 -0.830547 0.198313 
8 1 9.30108 -0.607427 -0.377543 
9 1 10.1748 -0.982277 -0.0676045 
7 1 -2.33147e-16 2.33147e-16 0 
13 1 9.12626 0.37485 -0.309939 
14 1 10 1.33227e-16 -4.16334e-18 
10 1 10.8737 -0.37485 0.309939 
6 1 -0.520446 0.830547 -0.198313 
12 1 9.82518 0.982277 0.0676045 