ITEM: TIMESTEP
100000
ITEM: NUMBER OF ENTRIES
1
ITEM: BOX BOUNDS pp pp pp
-25 29
-25 25
-25 25
ITEM: ENTRIES c_com_1[1] c_com_1[2] c_com_1[3] c_com_2[1] c_com_2[2] c_com_2[3] c_vel_1[1] c_vel_1[2] c_vel_1[3] c_vel_2[1] c_vel_2[2] c_vel_2[3] c_q_1[1] c_q_1[2] c_q_1[3] c_q_1[4] c_q_2[1] c_q_2[2] c_q_2[3] c_q_2[4] c_av_1[1] c_av_1[2] c_av_1[3] c_av_2[1] c_av_2[2] c_av_2[3] c_am_1[1] c_am_1[2] c_am_1[3] c_am_2[1] c_am_2[2] c_am_2[3] c_i_1[1] c_i_1[2] c_i_1[3] c_i_2[1] c_i_2[2] c_i_2[3] 
-1.19927 11.6451 11.8434 -0.969568 15.217 11.403 -0.179597 -0.0893161 0.153923 -0.208994 -0.15686 -0.139287 -0.258063 0.286811 0.31883 0.865731 -0.0362313 -0.0117911 -0.336185 0.941025 0.345407 0.091723 -0.306365 0.274421 -0.326835 -0.462141 1.90477 0.830245 -1.82747 0.727495 -1.09709 -1.37731 6 3 3 3 6 3 
ITEM: TIMESTEP
101000
ITEM: NUMBER OF ENTRIES
1
ITEM: BOX BOUNDS pp pp pp
-25 29
-25 25
-25 25
ITEM: ENTRIES c_com_1[1] c_com_1[2] c_com_1[3] c_com_2[1] c_com_2[2] c_com_2[3] c_vel_1[1] c_vel_1[2] c_vel_1[3] c_vel_2[1] c_vel_2[2] c_vel_2[3] c_q_1[1] c_q_1[2] c_q_1[3] c_q_1[4] c_q_2[1] c_q_2[2] c_q_2[3] c_q_2[4] c_av_1[1] c_av_1[2] c_av_1[3] c_av_2[1] c_av_2[2] c_av_2[3] c_am_1[1] c_am_1[2] c_am_1[3] c_am_2[1] c_am_2[2] c_am_2[3] c_i_1[1] c_i_1[2] c_i_1[3] c_i_2[1] c_i_2[2] c_i_2[3] 
-1.20107 11.6442 11.8449 -0.971658 15.2154 11.4016 -0.179526 -0.0881968 0.153784 -0.209066 -0.157979 -0.139149 -0.255982 0.287052 0.318115 0.866532 -0.0344172 -0.012784 -0.338433 0.940274 0.345117 0.0915662 -0.306738 0.274609 -0.326975 -0.461929 1.90477 0.830245 -1.82747 0.727495 -1.09709 -1.37731 6 3 3 3 6 3 
ITEM: TIMESTEP
102000
ITEM: NUMBER OF ENTRIES
1
ITEM: BOX BOUNDS pp pp pp
-25 29
-25 25
-25 25
ITEM: ENTRIES c_com_1[1] c_com_1[2] c_com_1[3] c_com_2[1] c_com_2[2] c_com_2[3] c_vel_1[1] c_vel_1[2] c_vel_1[3] c_vel_2[1] c_vel_2[2] c_vel_2[3] c_q_1[1] c_q_1[2] c_q_1[3] c_q_1[4] c_q_2[1] c_q_2[2] c_q_2[3] c_q_2[4] c_av_1[1] c_av_1[2] c_av_1[3] c_av_2[1] c_av_2[2] c_av_2[3] c_am_1[1] c_am_1[2] c_am_1[3] c_am_2[1] c_am_2[2] c_am_2[3] c_i_1[1] c_i_1[2] c_i_1[3] c_i_2[1] c_i_2[2] c_i_2[3] 
-1.20286 11.6433 11.8464 -0.973749 15.2139 11.4003 -0.179454 -0.0870772 0.153645 -0.209138 -0.159099 -0.13901 -0.253901 0.287291 0.317397 0.867328 -0.0326017 -0.0137772 -0.340676 0.939514 0.344825 0.0914135 -0.307112 0.274797 -0.327116 -0.461718 1.90477 0.830245 -1.82747 0.727495 -1.09709 -1.37731 6 3 3 3 6 3 
ITEM: TIMESTEP
103000
ITEM: NUMBER OF ENTRIES
1
ITEM: BOX BOUNDS pp pp pp
-25 29
-25 25
-25 25
ITEM: ENTRIES c_com_1[1] c_com_1[2] c_com_1[3] c_com_2[1] c_com_2[2] c_com_2[3] c_vel_1[1] c_vel_1[2] c_vel_1[3] c_vel_2[1] c_vel_2[2] c_vel_2[3] c_q_1[1] c_q_1[2] c_q_1[3] c_q_1[4] c_q_2[1] c_q_2[2] c_q_2[3] c_q_2[4] c_av_1[1] c_av_1[2] c_av_1[3] c_av_2[1] c_av_2[2] c_av_2[3] c_am_1[1] c_am_1[2] c_am_1[3] c_am_2[1] c_am_2[2] c_am_2[3] c_i_1[1] c_i_1[2] c_i_1[3] c_i_2[1] c_i_2[2] c_i_2[3] 
-1.20466 11.6425 11.848 -0.975841 15.2123 11.3989 -0.179382 -0.0859578 0.153505 -0.209209 -0.160218 -0.138869 -0.251819 0.28753 0.316675 0.868119 -0.0307847 -0.0147706 -0.342915 0.938746 0.344531 0.091265 -0.307486 0.274983 -0.327259 -0.461506 1.90477 0.830245 -1.82747 0.727495 -1.09709 -1.37731 6 3 3 3 6 3 
ITEM: TIMESTEP
104000
ITEM: NUMBER OF ENTRIES
1
ITEM: BOX BOUNDS pp pp pp
-25 29
-25 25
-25 25
ITEM: ENTRIES c_com_1[1] c_com_1[2] c_com_1[3] c_com_2[1] c_com_2[2] c_com_2[3] c_vel_1[1] c_vel_1[2] c_vel_1[3] c_vel_2[1] c_vel_2[2] c_vel_2[3] c_q_1[1] c_q_1[2] c_q_1[3] c_q_1[4] c_q_2[1] c_q_2[2] c_q_2[3] c_q_2[4] c_av_1[1] c_av_1[2] c_av_1[3] c_av_2[1] c_av_2[2] c_av_2[3] c_am_1[1] c_am_1[2] c_am_1[3] c_am_2[1] c_am_2[2] c_am_2[3] c_i_1[1] c_i_1[2] c_i_1[3] c_i_2[1] c_i_2[2] c_i_2[3] 
-1.20645 11.6416 11.8495 -0.977933 15.2107 11.3975 -0.17931 -0.0848386 0.153363 -0.209281 -0.161337 -0.138728 -0.249737 0.287767 0.315948 0.868907 -0.0289663 -0.0157643 -0.34515 0.937968 0.344235 0.0911207 -0.30786 0.275167 -0.327403 -0.461294 1.90477 0.830245 -1.82747 0.727495 -1.09709 -1.37731 6 3 3 3 6 3 
ITEM: TIMESTEP
105000
ITEM: NUMBER OF ENTRIES
1
ITEM: BOX BOUNDS pp pp pp
-25 29
-25 25
-25 25
ITEM: ENTRIES c_com_1[1] c_com_1[2] c_com_1[3] c_com_2[1] c_com_2[2] c_com_2[3] c_vel_1[1] c_vel_1[2] c_vel_1[3] c_vel_2[1] c_vel_2[2] c_vel_2[3] c_q_1[1] c_q_1[2] c_q_1[3] c_q_1[4] c_q_2[1] c_q_2[2] c_q_2[3] c_q_2[4] c_av_1[1] c_av_1[2] c_av_1[3] c_av_2[1] c_av_2[2] c_av_2[3] c_am_1[1] c_am_1[2] c_am_1[3] c_am_2[1] c_am_2[2] c_am_2[3] c_i_1[1] c_i_1[2] c_i_1[3] c_i_2[1] c_i_2[2] c_i_2[3] 
-1.20824 11.6408 11.851 -0.980026 15.209 11.3961 -0.179239 -0.0837197 0.153221 -0.209353 -0.162456 -0.138586 -0.247654 0.288003 0.315218 0.869689 -0.0271464 -0.0167582 -0.34738 0.937181 0.343937 0.0909805 -0.308234 0.27535 -0.327548 -0.461081 1.90477 0.830245 -1.82747 0.727495 -1.09709 -1.37731 6 3 3 3 6 3 
ITEM: TIMESTEP
106000
ITEM: NUMBER OF ENTRIES
1
ITEM: BOX BOUNDS pp pp pp
-25 29
-25 25
-25 25
ITEM: ENTRIES c_com_1[1] c_com_1[2] c_com_1[3] c_com_2[1] c_com_2[2] c_com_2[3] c_vel_1[1] c_vel_1[2] c_vel_1[3] c_vel_2[1] c_vel_2[2] c_vel_2[3] c_q_1[1] c_q_1[2] c_q_1[3] c_q_1[4] c_q_2[1] c_q_2[2] c_q_2[3] c_q_2[4] c_av_1[1] c_av_1[2] c_av_1[3] c_av_2[1] c_av_2[2] c_av_2[3] c_am_1[1] c_am_1[2] c_am_1[3] c_am_2[1] c_am_2[2] c_am_2[3] c_i_1[1] c_i_1[2] c_i_1[3] c_i_2[1] c_i_2[2] c_i_2[3] 
-1.21004 11.6399 11.8526 -0.98212 15.2074 11.3947 -0.179167 -0.0826011 0.153078 -0.209424 -0.163575 -0.138443 -0.245571 0.288237 0.314483 0.870468 -0.0253252 -0.0177523 -0.349606 0.936386 0.343637 0.0908446 -0.308608 0.275532 -0.327695 -0.460869 1.90477 0.830245 -1.82747 0.727495 -1.09709 -1.37731 6 3 3 3 6 3 
ITEM: TIMESTEP
107000
ITEM: NUMBER OF ENTRIES
1
ITEM: BOX BOUNDS pp pp pp
-25 29
-25 25
-25 25
ITEM: ENTRIES c_com_1[1] c_com_1[2] c_com_1[3] c_com_2[1] c_com_2[2] c_com_2[3] c_vel_1[1] c_vel_1[2] c_vel_1[3] c_vel_2[1] c_vel_2[2] c_vel_2[3] c_q_1[1] c_q_1[2] c_q_1[3] c_q_1[4] c_q_2[1] c_q_2[2] c_q_2[3] c_q_2[4] c_av_1[1] c_av_1[2] c_av_1[3] c_av_2[1] c_av_2[2] c_av_2[3] c_am_1[1] c_am_1[2] c_am_1[3] c_am_2[1] c_am_2[2] c_am_2[3] c_i_1[1] c_i_1[2] c_i_1[3] c_i_2[1] c_i_2[2] c_i_2[3] 
-1.21183 11.6391 11.8541 -0.984215 15.2058 11.3933 -0.179096 -0.0814826 0.152934 -0.209496 -0.164693 -0.138299 -0.243488 0.288471 0.313745 0.871242 -0.0235026 -0.0187467 -0.351828 0.935582 0.343336 0.0907128 -0.308983 0.275712 -0.327843 -0.460655 1.90477 0.830245 -1.82747 0.727495 -1.09709 -1.37731 6 3 3 3 6 3 
ITEM: TIMESTEP
108000
ITEM: NUMBER OF ENTRIES
1
ITEM: BOX BOUNDS pp pp pp
-25 29
-25 25
-25 25
ITEM: ENTRIES c_com_1[1] c_com_1[2] c_com_1[3] c_com_2[1] c_com_2[2] c_com_2[3] c_vel_1[1] c_vel_1[2] c_vel_1[3] c_vel_2[1] c_vel_2[2] c_vel_2[3] c_q_1[1] c_q_1[2] c_q_1[3] c_q_1[4] c_q_2[1] c_q_2[2] c_q_2[3] c_q_2[4] c_av_1[1] c_av_1[2] c_av_1[3] c_av_2[1] c_av_2[2] c_av_2[3] c_am_1[1] c_am_1[2] c_am_1[3] c_am_2[1] c_am_2[2] c_am_2[3] c_i_1[1] c_i_1[2] c_i_1[3] c_i_2[1] c_i_2[2] c_i_2[3] 
-1.21362 11.6383 11.8556 -0.98631 15.2041 11.3919 -0.179024 -0.0803645 0.152789 -0.209567 -0.165811 -0.138154 -0.241404 0.288703 0.313003 0.872012 -0.0216786 -0.0197412 -0.354045 0.934769 0.343032 0.0905853 -0.309357 0.275891 -0.327992 -0.460442 1.90477 0.830245 -1.82747 0.727495 -1.09709 -1.37731 6 3 3 3 6 3 
ITEM: TIMESTEP
109000
ITEM: NUMBER OF ENTRIES
1
ITEM: BOX BOUNDS pp pp pp
-25 29
-25 25
-25 25
ITEM: ENTRIES c_com_1[1] c_com_1[2] c_com_1[3] c_com_2[1] c_com_2[2] c_com_2[3] c_vel_1[1] c_vel_1[2] c_vel_1[3] c_vel_2[1] c_vel_2[2] c_vel_2[3] c_q_1[1] c_q_1[2] c_q_1[3] c_q_1[4] c_q_2[1] c_q_2[2] c_q_2[3] c_q_2[4] c_av_1[1] c_av_1[2] c_av_1[3] c_av_2[1] c_av_2[2] c_av_2[3] c_am_1[1] c_am_1[2] c_am_1[3] c_am_2[1] c_am_2[2] c_am_2[3] c_i_1[1] c_i_1[2] c_i_1[3] c_i_2[1] c_i_2[2] c_i_2[3] 
-1.21541 11.6375 11.8572 -0.988406 15.2024 11.3906 -0.178953 -0.0792466 0.152643 -0.209638 -0.166929 -0.138008 -0.23932 0.288934 0.312256 0.872777 -0.0198533 -0.020736 -0.356257 0.933947 0.342727 0.090462 -0.309731 0.276068 -0.328143 -0.460228 1.90477 0.830245 -1.82747 0.727495 -1.09709 -1.37731 6 3 3 3 6 3 
ITEM: TIMESTEP
110000
ITEM: NUMBER OF ENTRIES
1
ITEM: BOX BOUNDS pp pp pp
-25 29
-25 25
-25 25
ITEM: ENTRIES c_com_1[1] c_com_1[2] c_com_1[3] c_com_2[1] c_com_2[2] c_com_2[3] c_vel_1[1] c_vel_1[2] c_vel_1[3] c_vel_2[1] c_vel_2[2] c_vel_2[3] c_q_1[1] c_q_1[2] c_q_1[3] c_q_1[4] c_q_2[1] c_q_2[2] c_q_2[3] c_q_2[4] c_av_1[1] c_av_1[2] c_av_1[3] c_av_2[1] c_av_2[2] c_av_2[3] c_am_1[1] c_am_1[2] c_am_1[3] c_am_2[1] c_am_2[2] c_am_2[3] c_i_1[1] c_i_1[2] c_i_1[3] c_i_2[1] c_i_2[2] c_i_2[3] 
-1.2172 11.6367 11.8587 -0.990503 15.2008 11.3892 -0.178882 -0.078129 0.152496 -0.209709 -0.168047 -0.137861 -0.237235 0.289163 0.311506 0.873538 -0.0180267 -0.021731 -0.358466 0.933116 0.34242 0.0903429 -0.310105 0.276244 -0.328295 -0.460014 1.90477 0.830245 -1.82747 0.727495 -1.09709 -1.37731 6 3 3 3 6 3 
ITEM: TIMESTEP
111000
ITEM: NUMBER OF ENTRIES
1
ITEM: BOX BOUNDS pp pp pp
-25 29
-25 25
-25 25
ITEM: ENTRIES c_com_1[1] c_com_1[2] c_com_1[3] c_com_2[1] c_com_2[2] c_com_2[3] c_vel_1[1] c_vel_1[2] c_vel_1[3] c_vel_2[1] c_vel_2[2] c_vel_2[3] c_q_1[1] c_q_1[2] c_q_1[3] c_q_1[4] c_q_2[1] c_q_2[2] c_q_2[3] c_q_2[4] c_av_1[1] c_av_1[2] c_av_1[3] c_av_2[1] c_av_2[2] c_av_2[3] c_am_1[1] c_am_1[2] c_am_1[3] c_am_2[1] c_am_2[2] c_am_2[3] c_i_1[1] c_i_1[2] c_i_1[3] c_i_2[1] c_i_2[2] c_i_2[3] 
-1.21899 11.6359 11.8602 -0.9926 15.1991 11.3878 -0.178811 -0.0770116 0.152349 -0.20978 -0.169164 -0.137713 -0.23515 0.289392 0.310752 0.874294 -0.0161988 -0.0227262 -0.360669 0.932276 0.342111 0.0902281 -0.310479 0.276418 -0.328448 -0.4598 1.90477 0.830245 -1.82747 0.727495 -1.09709 -1.37731 6 3 3 3 6 3 
ITEM: TIMESTEP
112000
ITEM: NUMBER OF ENTRIES
1
ITEM: BOX BOUNDS pp pp pp
-25 29
-25 25
-25 25
ITEM: ENTRIES c_com_1[1] c_com_1[2] c_com_1[3] c_com_2[1] c_com_2[2] c_com_2[3] c_vel_1[1] c_vel_1[2] c_vel_1[3] c_vel_2[1] c_vel_2[2] c_vel_2[3] c_q_1[1] c_q_1[2] c_q_1[3] c_q_1[4] c_q_2[1] c_q_2[2] c_q_2[3] c_q_2[4] c_av_1[1] c_av_1[2] c_av_1[3] c_av_2[1] c_av_2[2] c_av_2[3] c_am_1[1] c_am_1[2] c_am_1[3] c_am_2[1] c_am_2[2] c_am_2[3] c_i_1[1] c_i_1[2] c_i_1[3] c_i_2[1] c_i_2[2] c_i_2[3] 
-1.22077 11.6352 11.8617 -0.994698 15.1974 11.3864 -0.17874 -0.0758946 0.1522 -0.209851 -0.170281 -0.137565 -0.233065 0.289619 0.309994 0.875046 -0.0143696 -0.0237216 -0.362868 0.931428 0.341801 0.0901176 -0.310853 0.276591 -0.328603 -0.459586 1.90477 0.830245 -1.82747 0.727495 -1.09709 -1.37731 6 3 3 3 6 3 
ITEM: TIMESTEP
113000
ITEM: NUMBER OF ENTRIES
1
ITEM: BOX BOUNDS pp pp pp
-25 29
-25 25
-25 25
ITEM: ENTRIES c_com_1[1] c_com_1[2] c_com_1[3] c_com_2[1] c_com_2[2] c_com_2[3] c_vel_1[1] c_vel_1[2] c_vel_1[3] c_vel_2[1] c_vel_2[2] c_vel_2[3] c_q_1[1] c_q_1[2] c_q_1[3] c_q_1[4] c_q_2[1] c_q_2[2] c_q_2[3] c_q_2[4] c_av_1[1] c_av_1[2] c_av_1[3] c_av_2[1] c_av_2[2] c_av_2[3] c_am_1[1] c_am_1[2] c_am_1[3] c_am_2[1] c_am_2[2] c_am_2[3] c_i_1[1] c_i_1[2] c_i_1[3] c_i_2[1] c_i_2[2] c_i_2[3] 
-1.22256 11.6344 11.8633 -0.996797 15.1957 11.3851 -0.178669 -0.0747778 0.152051 -0.209922 -0.171398 -0.137415 -0.23098 0.289845 0.309232 0.875793 -0.0125391 -0.0247172 -0.365063 0.93057 0.341489 0.0900113 -0.311227 0.276762 -0.328759 -0.459371 1.90477 0.830245 -1.82747 0.727495 -1.09709 -1.37731 6 3 3 3 6 3 
ITEM: TIMESTEP
114000
ITEM: NUMBER OF ENTRIES
1
ITEM: BOX BOUNDS pp pp pp
-25 29
-25 25
-25 25
ITEM: ENTRIES c_com_1[1] c_com_1[2] c_com_1[3] c_com_2[1] c_com_2[2] c_com_2[3] c_vel_1[1] c_vel_1[2] c_vel_1[3] c_vel_2[1] c_vel_2[2] c_vel_2[3] c_q_1[1] c_q_1[2] c_q_1[3] c_q_1[4] c_q_2[1] c_q_2[2] c_q_2[3] c_q_2[4] c_av_1[1] c_av_1[2] c_av_1[3] c_av_2[1] c_av_2[2] c_av_2[3] c_am_1[1] c_am_1[2] c_am_1[3] c_am_2[1] c_am_2[2] c_am_2[3] c_i_1[1] c_i_1[2] c_i_1[3] c_i_2[1] c_i_2[2] c_i_2[3] 
-1.22435 11.6337 11.8648 -0.998897 15.194 11.3837 -0.178598 -0.0736614 0.1519 -0.209993 -0.172514 -0.137265 -0.228894 0.29007 0.308466 0.876536 -0.0107075 -0.025713 -0.367253 0.929704 0.341175 0.0899093 -0.3116 0.276932 -0.328916 -0.459156 1.90477 0.830245 -1.82747 0.727495 -1.09709 -1.37731 6 3 3 3 6 3 
ITEM: TIMESTEP
115000
ITEM: NUMBER OF ENTRIES
1
ITEM: BOX BOUNDS pp pp pp
-25 29
-25 25
-25 25
ITEM: ENTRIES c_com_1[1] c_com_1[2] c_com_1[3] c_com_2[1] c_com_2[2] c_com_2[3] c_vel_1[1] c_vel_1[2] c_vel_1[3] c_vel_2[1] c_vel_2[2] c_vel_2[3] c_q_1[1] c_q_1[2] c_q_1[3] c_q_1[4] c_q_2[1] c_q_2[2] c_q_2[3] c_q_2[4] c_av_1[1] c_av_1[2] c_av_1[3] c_av_2[1] c_av_2[2] c_av_2[3] c_am_1[1] c_am_1[2] c_am_1[3] c_am_2[1] c_am_2[2] c_am_2[3] c_i_1[1] c_i_1[2] c_i_1[3] c_i_2[1] c_i_2[2] c_i_2[3] 
-1.22613 11.633 11.8663 -1.001 15.1922 11.3823 -0.178528 -0.0725453 0.151749 -0.210063 -0.173631 -0.137114 -0.226808 0.290294 0.307696 0.877274 -0.00887461 -0.026709 -0.369438 0.928829 0.340859 0.0898116 -0.311973 0.277101 -0.329075 -0.458941 1.90477 0.830245 -1.82747 0.727495 -1.09709 -1.37731 6 3 3 3 6 3 
ITEM: TIMESTEP
116000
ITEM: NUMBER OF ENTRIES
1
ITEM: BOX BOUNDS pp pp pp
-25 29
-25 25
-25 25
ITEM: ENTRIES c_com_1[1] c_com_1[2] c_com_1[3] c_com_2[1] c_com_2[2] c_com_2[3] c_vel_1[1] c_vel_1[2] c_vel_1[3] c_vel_2[1] c_vel_2[2] c_vel_2[3] c_q_1[1] c_q_1[2] c_q_1[3] c_q_1[4] c_q_2[1] c_q_2[2] c_q_2[3] c_q_2[4] c_av_1[1] c_av_1[2] c_av_1[3] c_av_2[1] c_av_2[2] c_av_2[3] c_am_1[1] c_am_1[2] c_am_1[3] c_am_2[1] c_am_2[2] c_am_2[3] c_i_1[1] c_i_1[2] c_i_1[3] c_i_2[1] c_i_2[2] c_i_2[3] 
-1.22792 11.6322 11.8678 -1.0031 15.1905 11.3809 -0.178457 -0.0714294 0.151597 -0.210134 -0.174746 -0.136962 -0.224722 0.290517 0.306922 0.878008 -0.00704054 -0.0277051 -0.371618 0.927945 0.340542 0.0897182 -0.312346 0.277267 -0.329235 -0.458725 1.90477 0.830245 -1.82747 0.727495 -1.09709 -1.37731 6 3 3 3 6 3 
ITEM: TIMESTEP
117000
ITEM: NUMBER OF ENTRIES
1
ITEM: BOX BOUNDS pp pp pp
-25 29
-25 25
-25 25
ITEM: ENTRIES c_com_1[1] c_com_1[2] c_com_1[3] c_com_2[1] c_com_2[2] c_com_2[3] c_vel_1[1] c_vel_1[2] c_vel_1[3] c_vel_2[1] c_vel_2[2] c_vel_2[3] c_q_1[1] c_q_1[2] c_q_1[3] c_q_1[4] c_q_2[1] c_q_2[2] c_q_2[3] c_q_2[4] c_av_1[1] c_av_1[2] c_av_1[3] c_av_2[1] c_av_2[2] c_av_2[3] c_am_1[1] c_am_1[2] c_am_1[3] c_am_2[1] c_am_2[2] c_am_2[3] c_i_1[1] c_i_1[2] c_i_1[3] c_i_2[1] c_i_2[2] c_i_2[3] 
-1.2297 11.6315 11.8693 -1.0052 15.1887 11.3796 -0.178387 -0.0703139 0.151444 -0.210204 -0.175862 -0.136808 -0.222635 0.290739 0.306144 0.878738 -0.00520532 -0.0287014 -0.373795 0.927053 0.340223 0.089629 -0.312719 0.277433 -0.329396 -0.458509 1.90477 0.830245 -1.82747 0.727495 -1.09709 -1.37731 6 3 3 3 6 3 
ITEM: TIMESTEP
118000
ITEM: NUMBER OF ENTRIES
1
ITEM: BOX BOUNDS pp pp pp
-25 29
-25 25
-25 25
ITEM: ENTRIES c_com_1[1] c_com_1[2] c_com_1[3] c_com_2[1] c_com_2[2] c_com_2[3] c_vel_1[1] c_vel_1[2] c_vel_1[3] c_vel_2[1] c_vel_2[2] c_vel_2[3] c_q_1[1] c_q_1[2] c_q_1[3] c_q_1[4] c_q_2[1] c_q_2[2] c_q_2[3] c_q_2[4] c_av_1[1] c_av_1[2] c_av_1[3] c_av_2[1] c_av_2[2] c_av_2[3] c_am_1[1] c_am_1[2] c_am_1[3] c_am_2[1] c_am_2[2] c_am_2[3] c_i_1[1] c_i_1[2] c_i_1[3] c_i_2[1] c_i_2[2] c_i_2[3] 
-1.23148 11.6308 11.8708 -1.0073 15.187 11.3782 -0.178316 -0.0691988 0.15129 -0.210275 -0.176977 -0.136654 -0.220549 0.290959 0.305363 0.879463 -0.00336894 -0.0296979 -0.375966 0.926151 0.339903 0.0895442 -0.313091 0.277596 -0.329558 -0.458294 1.90477 0.830245 -1.82747 0.727495 -1.09709 -1.37731 6 3 3 3 6 3 
ITEM: TIMESTEP
119000
ITEM: NUMBER OF ENTRIES
1
ITEM: BOX BOUNDS pp pp pp
-25 29
-25 25
-25 25
ITEM: ENTRIES c_com_1[1] c_com_1[2] c_com_1[3] c_com_2[1] c_com_2[2] c_com_2[3] c_vel_1[1] c_vel_1[2] c_vel_1[3] c_vel_2[1] c_vel_2[2] c_vel_2[3] c_q_1[1] c_q_1[2] c_q_1[3] c_q_1[4] c_q_2[1] c_q_2[2] c_q_2[3] c_q_2[4] c_av_1[1] c_av_1[2] c_av_1[3] c_av_2[1] c_av_2[2] c_av_2[3] c_am_1[1] c_am_1[2] c_am_1[3] c_am_2[1] c_am_2[2] c_am_2[3] c_i_1[1] c_i_1[2] c_i_1[3] c_i_2[1] c_i_2[2] c_i_2[3] 
-1.23327 11.6301 11.8723 -1.00941 15.1852 11.3768 -0.178246 -0.068084 0.151135 -0.210345 -0.178092 -0.136499 -0.218462 0.291179 0.304577 0.880183 -0.00153144 -0.0306945 -0.378133 0.925241 0.339581 0.0894638 -0.313463 0.277758 -0.329722 -0.458078 1.90477 0.830245 -1.82747 0.727495 -1.09709 -1.37731 6 3 3 3 6 3 
ITEM: TIMESTEP
120000
ITEM: NUMBER OF ENTRIES
1
ITEM: BOX BOUNDS pp pp pp
-25 29
-25 25
-25 25
ITEM: ENTRIES c_com_1[1] c_com_1[2] c_com_1[3] c_com_2[1] c_com_2[2] c_com_2[3] c_vel_1[1] c_vel_1[2] c_vel_1[3] c_vel_2[1] c_vel_2[2] c_vel_2[3] c_q_1[1] c_q_1[2] c_q_1[3] c_q_1[4] c_q_2[1] c_q_2[2] c_q_2[3] c_q_2[4] c_av_1[1] c_av_1[2] c_av_1[3] c_av_2[1] c_av_2[2] c_av_2[3] c_am_1[1] c_am_1[2] c_am_1[3] c_am_2[1] c_am_2[2] c_am_2[3] c_i_1[1] c_i_1[2] c_i_1[3] c_i_2[1] c_i_2[2] c_i_2[3] 
-1.23505 11.6295 11.8739 -1.01151 15.1834 11.3755 -0.178176 -0.0669695 0.150979 -0.210415 -0.179206 -0.136344 -0.216374 0.291397 0.303788 0.880899 0.000307172 -0.0316913 -0.380295 0.924322 0.339258 0.0893876 -0.313835 0.277919 -0.329887 -0.457861 1.90477 0.830245 -1.82747 0.727495 -1.09709 -1.37731 6 3 3 3 6 3 
ITEM: TIMESTEP
121000
ITEM: NUMBER OF ENTRIES
1
ITEM: BOX BOUNDS pp pp pp
-25 29
-25 25
-25 25
ITEM: ENTRIES c_com_1[1] c_com_1[2] c_com_1[3] c_com_2[1] c_com_2[2] c_com_2[3] c_vel_1[1] c_vel_1[2] c_vel_1[3] c_vel_2[1] c_vel_2[2] c_vel_2[3] c_q_1[1] c_q_1[2] c_q_1[3] c_q_1[4] c_q_2[1] c_q_2[2] c_q_2[3] c_q_2[4] c_av_1[1] c_av_1[2] c_av_1[3] c_av_2[1] c_av_2[2] c_av_2[3] c_am_1[1] c_am_1[2] c_am_1[3] c_am_2[1] c_am_2[2] c_am_2[3] c_i_1[1] c_i_1[2] c_i_1[3] c_i_2[1] c_i_2[2] c_i_2[3] 
-1.23683 11.6288 11.8754 -1.01361 15.1816 11.3741 -0.178106 -0.0658553 0.150822 -0.210485 -0.180321 -0.136187 -0.214287 0.291615 0.302995 0.88161 0.00214687 -0.0326882 -0.382452 0.923395 0.338933 0.0893158 -0.314206 0.278078 -0.330053 -0.457645 1.90477 0.830245 -1.82747 0.727495 -1.09709 -1.37731 6 3 3 3 6 3 
ITEM: TIMESTEP
122000
ITEM: NUMBER OF ENTRIES
1
ITEM: BOX BOUNDS pp pp pp
-25 29
-25 25
-25 25
ITEM: ENTRIES c_com_1[1] c_com_1[2] c_com_1[3] c_com_2[1] c_com_2[2] c_com_2[3] c_vel_1[1] c_vel_1[2] c_vel_1[3] c_vel_2[1] c_vel_2[2] c_vel_2[3] c_q_1[1] c_q_1[2] c_q_1[3] c_q_1[4] c_q_2[1] c_q_2[2] c_q_2[3] c_q_2[4] c_av_1[1] c_av_1[2] c_av_1[3] c_av_2[1] c_av_2[2] c_av_2[3] c_am_1[1] c_am_1[2] c_am_1[3] c_am_2[1] c_am_2[2] c_am_2[3] c_i_1[1] c_i_1[2] c_i_1[3] c_i_2[1] c_i_2[2] c_i_2[3] 
-1.23861 11.6281 11.8769 -1.01572 15.1798 11.3727 -0.178036 -0.0647416 0.150665 -0.210555 -0.181434 -0.136029 -0.212199 0.291831 0.302198 0.882317 0.00398762 -0.0336853 -0.384604 0.922458 0.338607 0.0892483 -0.314576 0.278236 -0.330221 -0.457428 1.90477 0.830245 -1.82747 0.727495 -1.09709 -1.37731 6 3 3 3 6 3 
ITEM: TIMESTEP
123000
ITEM: NUMBER OF ENTRIES
1
ITEM: BOX BOUNDS pp pp pp
-25 29
-25 25
-25 25
ITEM: ENTRIES c_com_1[1] c_com_1[2] c_com_1[3] c_com_2[1] c_com_2[2] c_com_2[3] c_vel_1[1] c_vel_1[2] c_vel_1[3] c_vel_2[1] c_vel_2[2] c_vel_2[3] c_q_1[1] c_q_1[2] c_q_1[3] c_q_1[4] c_q_2[1] c_q_2[2] c_q_2[3] c_q_2[4] c_av_1[1] c_av_1[2] c_av_1[3] c_av_2[1] c_av_2[2] c_av_2[3] c_am_1[1] c_am_1[2] c_am_1[3] c_am_2[1] c_am_2[2] c_am_2[3] c_i_1[1] c_i_1[2] c_i_1[3] c_i_2[1] c_i_2[2] c_i_2[3] 
-1.24039 11.6275 11.8784 -1.01782 15.178 11.3714 -0.177966 -0.0636282 0.150506 -0.210625 -0.182548 -0.135871 -0.210112 0.292046 0.301397 0.883019 0.00582942 -0.0346825 -0.386752 0.921513 0.33828 0.0891851 -0.314947 0.278392 -0.33039 -0.457211 1.90477 0.830245 -1.82747 0.727495 -1.09709 -1.37731 6 3 3 3 6 3 
ITEM: TIMESTEP
124000
ITEM: NUMBER OF ENTRIES
1
ITEM: BOX BOUNDS pp pp pp
-25 29
-25 25
-25 25
ITEM: ENTRIES c_com_1[1] c_com_1[2] c_com_1[3] c_com_2[1] c_com_2[2] c_com_2[3] c_vel_1[1] c_vel_1[2] c_vel_1[3] c_vel_2[1] c_vel_2[2] c_vel_2[3] c_q_1[1] c_q_1[2] c_q_1[3] c_q_1[4] c_q_2[1] c_q_2[2] c_q_2[3] c_q_2[4] c_av_1[1] c_av_1[2] c_av_1[3] c_av_2[1] c_av_2[2] c_av_2[3] c_am_1[1] c_am_1[2] c_am_1[3] c_am_2[1] c_am_2[2] c_am_2[3] c_i_1[1] c_i_1[2] c_i_1[3] c_i_2[1] c_i_2[2] c_i_2[3] 
-1.24217 11.6269 11.8799 -1.01993 15.1761 11.37 -0.177897 -0.0625151 0.150347 -0.210695 -0.183661 -0.135711 -0.208024 0.292261 0.300592 0.883716 0.00767225 -0.0356799 -0.388895 0.920559 0.337951 0.0891263 -0.315316 0.278546 -0.33056 -0.456994 1.90477 0.830245 -1.82747 0.727495 -1.09709 -1.37731 6 3 3 3 6 3 
ITEM: TIMESTEP
125000
ITEM: NUMBER OF ENTRIES
1
ITEM: BOX BOUNDS pp pp pp
-25 29
-25 25
-25 25
ITEM: ENTRIES c_com_1[1] c_com_1[2] c_com_1[3] c_com_2[1] c_com_2[2] c_com_2[3] c_vel_1[1] c_vel_1[2] c_vel_1[3] c_vel_2[1] c_vel_2[2] c_vel_2[3] c_q_1[1] c_q_1[2] c_q_1[3] c_q_1[4] c_q_2[1] c_q_2[2] c_q_2[3] c_q_2[4] c_av_1[1] c_av_1[2] c_av_1[3] c_av_2[1] c_av_2[2] c_av_2[3] c_am_1[1] c_am_1[2] c_am_1[3] c_am_2[1] c_am_2[2] c_am_2[3] c_i_1[1] c_i_1[2] c_i_1[3] c_i_2[1] c_i_2[2] c_i_2[3] 
-1.24395 11.6263 11.8814 -1.02204 15.1743 11.3687 -0.177827 -0.0614025 0.150186 -0.210764 -0.184773 -0.135551 -0.205936 0.292474 0.299783 0.884409 0.00951607 -0.0366773 -0.391033 0.919596 0.33762 0.0890719 -0.315685 0.278699 -0.330731 -0.456777 1.90477 0.830245 -1.82747 0.727495 -1.09709 -1.37731 6 3 3 3 6 3 
ITEM: TIMESTEP
126000
ITEM: NUMBER OF ENTRIES
1
ITEM: BOX BOUNDS pp pp pp
-25 29
-25 25
-25 25
ITEM: ENTRIES c_com_1[1] c_com_1[2] c_com_1[3] c_com_2[1] c_com_2[2] c_com_2[3] c_vel_1[1] c_vel_1[2] c_vel_1[3] c_vel_2[1] c_vel_2[2] c_vel_2[3] c_q_1[1] c_q_1[2] c_q_1[3] c_q_1[4] c_q_2[1] c_q_2[2] c_q_2[3] c_q_2[4] c_av_1[1] c_av_1[2] c_av_1[3] c_av_2[1] c_av_2[2] c_av_2[3] c_am_1[1] c_am_1[2] c_am_1[3] c_am_2[1] c_am_2[2] c_am_2[3] c_i_1[1] c_i_1[2] c_i_1[3] c_i_2[1] c_i_2[2] c_i_2[3] 
-1.24573 11.6256 11.8829 -1.02415 15.1725 11.3673 -0.177757 -0.0602902 0.150025 -0.210834 -0.185886 -0.13539 -0.203847 0.292687 0.298971 0.885097 0.0113609 -0.0376749 -0.393166 0.918625 0.337288 0.0890218 -0.316054 0.27885 -0.330903 -0.45656 1.90477 0.830245 -1.82747 0.727495 -1.09709 -1.37731 6 3 3 3 6 3 
ITEM: TIMESTEP
127000
ITEM: NUMBER OF ENTRIES
1
ITEM: BOX BOUNDS pp pp pp
-25 29
-25 25
-25 25
ITEM: ENTRIES c_com_1[1] c_com_1[2] c_com_1[3] c_com_2[1] c_com_2[2] c_com_2[3] c_vel_1[1] c_vel_1[2] c_vel_1[3] c_vel_2[1] c_vel_2[2] c_vel_2[3] c_q_1[1] c_q_1[2] c_q_1[3] c_q_1[4] c_q_2[1] c_q_2[2] c_q_2[3] c_q_2[4] c_av_1[1] c_av_1[2] c_av_1[3] c_av_2[1] c_av_2[2] c_av_2[3] c_am_1[1] c_am_1[2] c_am_1[3] c_am_2[1] c_am_2[2] c_am_2[3] c_i_1[1] c_i_1[2] c_i_1[3] c_i_2[1] c_i_2[2] c_i_2[3] 
-1.2475 11.6251 11.8844 -1.02626 15.1706 11.366 -0.177688 -0.0591784 0.149863 -0.210903 -0.186998 -0.135228 -0.201759 0.292898 0.298155 0.885781 0.0132066 -0.0386726 -0.395294 0.917645 0.336955 0.0889761 -0.316422 0.279 -0.331077 -0.456343 1.90477 0.830245 -1.82747 0.727495 -1.09709 -1.37731 6 3 3 3 6 3 
ITEM: TIMESTEP
128000
ITEM: NUMBER OF ENTRIES
1
ITEM: BOX BOUNDS pp pp pp
-25 29
-25 25
-25 25
ITEM: ENTRIES c_com_1[1] c_com_1[2] c_com_1[3] c_com_2[1] c_com_2[2] c_com_2[3] c_vel_1[1] c_vel_1[2] c_vel_1[3] c_vel_2[1] c_vel_2[2] c_vel_2[3] c_q_1[1] c_q_1[2] c_q_1[3] c_q_1[4] c_q_2[1] c_q_2[2] c_q_2[3] c_q_2[4] c_av_1[1] c_av_1[2] c_av_1[3] c_av_2[1] c_av_2[2] c_av_2[3] c_am_1[1] c_am_1[2] c_am_1[3] c_am_2[1] c_am_2[2] c_am_2[3] c_i_1[1] c_i_1[2] c_i_1[3] c_i_2[1] c_i_2[2] c_i_2[3] 
-1.24928 11.6245 11.8859 -1.02836 15.1687 11.3646 -0.177619 -0.0580669 0.1497 -0.210972 -0.188109 -0.135065 -0.199671 0.293108 0.297335 0.88646 0.0150533 -0.0396704 -0.397418 0.916656 0.336621 0.0889347 -0.316789 0.279148 -0.331252 -0.456125 1.90477 0.830245 -1.82747 0.727495 -1.09709 -1.37731 6 3 3 3 6 3 
ITEM: TIMESTEP
129000
ITEM: NUMBER OF ENTRIES
1
ITEM: BOX BOUNDS pp pp pp
-25 29
-25 25
-25 25
ITEM: ENTRIES c_com_1[1] c_com_1[2] c_com_1[3] c_com_2[1] c_com_2[2] c_com_2[3] c_vel_1[1] c_vel_1[2] c_vel_1[3] c_vel_2[1] c_vel_2[2] c_vel_2[3] c_q_1[1] c_q_1[2] c_q_1[3] c_q_1[4] c_q_2[1] c_q_2[2] c_q_2[3] c_q_2[4] c_av_1[1] c_av_1[2] c_av_1[3] c_av_2[1] c_av_2[2] c_av_2[3] c_am_1[1] c_am_1[2] c_am_1[3] c_am_2[1] c_am_2[2] c_am_2[3] c_i_1[1] c_i_1[2] c_i_1[3] c_i_2[1] c_i_2[2] c_i_2[3] 
-1.25106 11.6239 11.8874 -1.03047 15.1668 11.3633 -0.177549 -0.0569558 0.149536 -0.211042 -0.18922 -0.134901 -0.197582 0.293318 0.296511 0.887134 0.016901 -0.0406683 -0.399536 0.915659 0.336285 0.0888977 -0.317156 0.279294 -0.331428 -0.455908 1.90477 0.830245 -1.82747 0.727495 -1.09709 -1.37731 6 3 3 3 6 3 
ITEM: TIMESTEP
130000
ITEM: NUMBER OF ENTRIES
1
ITEM: BOX BOUNDS pp pp pp
-25 29
-25 25
-25 25
ITEM: ENTRIES c_com_1[1] c_com_1[2] c_com_1[3] c_com_2[1] c_com_2[2] c_com_2[3] c_vel_1[1] c_vel_1[2] c_vel_1[3] c_vel_2[1] c_vel_2[2] c_vel_2[3] c_q_1[1] c_q_1[2] c_q_1[3] c_q_1[4] c_q_2[1] c_q_2[2] c_q_2[3] c_q_2[4] c_av_1[1] c_av_1[2] c_av_1[3] c_av_2[1] c_av_2[2] c_av_2[3] c_am_1[1] c_am_1[2] c_am_1[3] c_am_2[1] c_am_2[2] c_am_2[3] c_i_1[1] c_i_1[2] c_i_1[3] c_i_2[1] c_i_2[2] c_i_2[3] 
-1.25283 11.6233 11.8889 -1.03259 15.1649 11.3619 -0.17748 -0.0558452 0.149371 -0.211111 -0.190331 -0.134736 -0.195494 0.293527 0.295683 0.887804 0.0187495 -0.0416663 -0.40165 0.914653 0.335949 0.0888651 -0.317522 0.279439 -0.331605 -0.45569 1.90477 0.830245 -1.82747 0.727495 -1.09709 -1.37731 6 3 3 3 6 3 
ITEM: TIMESTEP
131000
ITEM: NUMBER OF ENTRIES
1
ITEM: BOX BOUNDS pp pp pp
-25 29
-25 25
-25 25
ITEM: ENTRIES c_com_1[1] c_com_1[2] c_com_1[3] c_com_2[1] c_com_2[2] c_com_2[3] c_vel_1[1] c_vel_1[2] c_vel_1[3] c_vel_2[1] c_vel_2[2] c_vel_2[3] c_q_1[1] c_q_1[2] c_q_1[3] c_q_1[4] c_q_2[1] c_q_2[2] c_q_2[3] c_q_2[4] c_av_1[1] c_av_1[2] c_av_1[3] c_av_2[1] c_av_2[2] c_av_2[3] c_am_1[1] c_am_1[2] c_am_1[3] c_am_2[1] c_am_2[2] c_am_2[3] c_i_1[1] c_i_1[2] c_i_1[3] c_i_2[1] c_i_2[2] c_i_2[3] 
-1.25461 11.6228 11.8904 -1.0347 15.163 11.3606 -0.177411 -0.0547349 0.149206 -0.21118 -0.191441 -0.13457 -0.193405 0.293734 0.294852 0.888469 0.0205989 -0.0426644 -0.403759 0.913638 0.335611 0.0888369 -0.317887 0.279582 -0.331784 -0.455472 1.90477 0.830245 -1.82747 0.727495 -1.09709 -1.37731 6 3 3 3 6 3 
ITEM: TIMESTEP
132000
ITEM: NUMBER OF ENTRIES
1
ITEM: BOX BOUNDS pp pp pp
-25 29
-25 25
-25 25
ITEM: ENTRIES c_com_1[1] c_com_1[2] c_com_1[3] c_com_2[1] c_com_2[2] c_com_2[3] c_vel_1[1] c_vel_1[2] c_vel_1[3] c_vel_2[1] c_vel_2[2] c_vel_2[3] c_q_1[1] c_q_1[2] c_q_1[3] c_q_1[4] c_q_2[1] c_q_2[2] c_q_2[3] c_q_2[4] c_av_1[1] c_av_1[2] c_av_1[3] c_av_2[1] c_av_2[2] c_av_2[3] c_am_1[1] c_am_1[2] c_am_1[3] c_am_2[1] c_am_2[2] c_am_2[3] c_i_1[1] c_i_1[2] c_i_1[3] c_i_2[1] c_i_2[2] c_i_2[3] 
-1.25638 11.6222 11.8919 -1.03681 15.1611 11.3592 -0.177342 -0.0536252 0.149039 -0.211249 -0.192551 -0.134404 -0.191316 0.293941 0.294016 0.889129 0.0224491 -0.0436626 -0.405862 0.912615 0.335271 0.088813 -0.318251 0.279724 -0.331963 -0.455254 1.90477 0.830245 -1.82747 0.727495 -1.09709 -1.37731 6 3 3 3 6 3 
ITEM: TIMESTEP
133000
ITEM: NUMBER OF ENTRIES
1
ITEM: BOX BOUNDS pp pp pp
-25 29
-25 25
-25 25
ITEM: ENTRIES c_com_1[1] c_com_1[2] c_com_1[3] c_com_2[1] c_com_2[2] c_com_2[3] c_vel_1[1] c_vel_1[2] c_vel_1[3] c_vel_2[1] c_vel_2[2] c_vel_2[3] c_q_1[1] c_q_1[2] c_q_1[3] c_q_1[4] c_q_2[1] c_q_2[2] c_q_2[3] c_q_2[4] c_av_1[1] c_av_1[2] c_av_1[3] c_av_2[1] c_av_2[2] c_av_2[3] c_am_1[1] c_am_1[2] c_am_1[3] c_am_2[1] c_am_2[2] c_am_2[3] c_i_1[1] c_i_1[2] c_i_1[3] c_i_2[1] c_i_2[2] c_i_2[3] 
-1.25815 11.6217 11.8934 -1.03892 15.1592 11.3579 -0.177274 -0.0525158 0.148872 -0.211318 -0.19366 -0.134236 -0.189227 0.294147 0.293177 0.889785 0.0243002 -0.0446609 -0.407961 0.911583 0.334931 0.0887935 -0.318615 0.279864 -0.332144 -0.455036 1.90477 0.830245 -1.82747 0.727495 -1.09709 -1.37731 6 3 3 3 6 3 
ITEM: TIMESTEP
134000
ITEM: NUMBER OF ENTRIES
1
ITEM: BOX BOUNDS pp pp pp
-25 29
-25 25
-25 25
ITEM: ENTRIES c_com_1[1] c_com_1[2] c_com_1[3] c_com_2[1] c_com_2[2] c_com_2[3] c_vel_1[1] c_vel_1[2] c_vel_1[3] c_vel_2[1] c_vel_2[2] c_vel_2[3] c_q_1[1] c_q_1[2] c_q_1[3] c_q_1[4] c_q_2[1] c_q_2[2] c_q_2[3] c_q_2[4] c_av_1[1] c_av_1[2] c_av_1[3] c_av_2[1] c_av_2[2] c_av_2[3] c_am_1[1] c_am_1[2] c_am_1[3] c_am_2[1] c_am_2[2] c_am_2[3] c_i_1[1] c_i_1[2] c_i_1[3] c_i_2[1] c_i_2[2] c_i_2[3] 
-1.25993 11.6212 11.8948 -1.04104 15.1572 11.3565 -0.177205 -0.0514069 0.148703 -0.211386 -0.194769 -0.134068 -0.187138 0.294352 0.292335 0.890436 0.0261521 -0.0456592 -0.410054 0.910542 0.33459 0.0887784 -0.318977 0.280002 -0.332326 -0.454818 1.90477 0.830245 -1.82747 0.727495 -1.09709 -1.37731 6 3 3 3 6 3 
ITEM: TIMESTEP
135000
ITEM: NUMBER OF ENTRIES
1
ITEM: BOX BOUNDS pp pp pp
-25 29
-25 25
-25 25
ITEM: ENTRIES c_com_1[1] c_com_1[2] c_com_1[3] c_com_2[1] c_com_2[2] c_com_2[3] c_vel_1[1] c_vel_1[2] c_vel_1[3] c_vel_2[1] c_vel_2[2] c_vel_2[3] c_q_1[1] c_q_1[2] c_q_1[3] c_q_1[4] c_q_2[1] c_q_2[2] c_q_2[3] c_q_2[4] c_av_1[1] c_av_1[2] c_av_1[3] c_av_2[1] c_av_2[2] c_av_2[3] c_am_1[1] c_am_1[2] c_am_1[3] c_am_2[1] c_am_2[2] c_am_2[3] c_i_1[1] c_i_1[2] c_i_1[3] c_i_2[1] c_i_2[2] c_i_2[3] 
-1.2617 11.6207 11.8963 -1.04315 15.1553 11.3552 -0.177136 -0.0502984 0.148534 -0.211455 -0.195877 -0.133899 -0.18505 0.294556 0.291488 0.891082 0.0280048 -0.0466576 -0.412143 0.909493 0.334247 0.0887677 -0.319339 0.280139 -0.332509 -0.4546 1.90477 0.830245 -1.82747 0.727495 -1.09709 -1.37731 6 3 3 3 6 3 
ITEM: TIMESTEP
136000
ITEM: NUMBER OF ENTRIES
1
ITEM: BOX BOUNDS pp pp pp
-25 29
-25 25
-25 25
ITEM: ENTRIES c_com_1[1] c_com_1[2] c_com_1[3] c_com_2[1] c_com_2[2] c_com_2[3] c_vel_1[1] c_vel_1[2] c_vel_1[3] c_vel_2[1] c_vel_2[2] c_vel_2[3] c_q_1[1] c_q_1[2] c_q_1[3] c_q_1[4] c_q_2[1] c_q_2[2] c_q_2[3] c_q_2[4] c_av_1[1] c_av_1[2] c_av_1[3] c_av_2[1] c_av_2[2] c_av_2[3] c_am_1[1] c_am_1[2] c_am_1[3] c_am_2[1] c_am_2[2] c_am_2[3] c_i_1[1] c_i_1[2] c_i_1[3] c_i_2[1] c_i_2[2] c_i_2[3] 
-1.26347 11.6202 11.8978 -1.04526 15.1533 11.3539 -0.177068 -0.0491904 0.148364 -0.211523 -0.196985 -0.133729 -0.182961 0.29476 0.290638 0.891724 0.0298583 -0.0476561 -0.414227 0.908435 0.333904 0.0887614 -0.3197 0.280274 -0.332694 -0.454382 1.90477 0.830245 -1.82747 0.727495 -1.09709 -1.37731 6 3 3 3 6 3 
ITEM: TIMESTEP
137000
ITEM: NUMBER OF ENTRIES
1
ITEM: BOX BOUNDS pp pp pp
-25 29
-25 25
-25 25