
# Simulation Parameters
variable log_freq equal 100                   # log frequency
variable runsteps equal 1000000               # N of steps to run for
variable timestep equal 0.00001                 # timestep

# -------------------------- ATOMS/MOLECULE DEFINITION --------------------------
read_data hex.conf                              # Add a hexagon molecule
  orthogonal box = (-25 -25 -25) to (25 25 25)
  1 by 1 by 1 MPI processor grid
  reading atoms ...
  7 atoms
  scanning bonds ...
  6 = max bonds/atom
  scanning angles ...
  6 = max angles/atom
  reading bonds ...
  12 bonds
  reading angles ...
  11 angles
  6 = max # of 1-2 neighbors
  12 = max # of 1-3 neighbors
  36 = max # of 1-4 neighbors
  6 = max # of special neighbors
  special bonds CPU = 0.000149 secs
  read_data CPU = 0.0055038 secs
read_data hex.conf add append shift 4.0 0.0 0.0 # Add a second identical molecule, shifted so it doesn't overlap
  orthogonal box = (-25 -25 -25) to (29 25 25)
  1 by 1 by 1 MPI processor grid
  reading atoms ...
  7 atoms
  scanning bonds ...
  6 = max bonds/atom
  scanning angles ...
  6 = max angles/atom
  reading bonds ...
  12 bonds
  reading angles ...
  11 angles
  6 = max # of 1-2 neighbors
  12 = max # of 1-3 neighbors
  36 = max # of 1-4 neighbors
  6 = max # of special neighbors
  special bonds CPU = 0.000199 secs
  read_data CPU = 0.0031897 secs

# Group ID can be used in other commands, including fix, compute, dump or velocity
group       hex_1 id 1 2 3 4 5 6 7              # label the atoms 1-7 as a group
7 atoms in group hex_1
group       hex_2 id 8 9 10 11 12 13 14         # label the atoms 8-14 as another group
7 atoms in group hex_2

# -------------------------- INTERATOMIC POTENTIALS -----------------------------
# Pairwise potentials
pair_style  lj/cut  ${cut}                      # lj truncated - cutoff at 1.12 sigma
pair_style  lj/cut  2.5                      
pair_coeff  *   *   1.0 ${sigma}                # epsilon | sigma - * * means all atoms interact with each other
pair_coeff  *   *   1.0 1                
fix hex_spring_NVT hex_1 spring couple hex_2 1.0 0.0 0.0 0.0 ${r0} # adds harmonic spring between rigid bodies
fix hex_spring_NVT hex_1 spring couple hex_2 1.0 0.0 0.0 0.0 0 
                            # f_hex_spring[1,2,3,4] = force_x, force_y, force_z, magnitude of the force


################## SYSTEM INITIALISATION WITH AN NVT SIMULATION ##################
# -------------------------------------------------------------------------------
# Add energy to the system by running an NVT simulation, use a very stiff spring to
# keep rigid bodies close. Then, remove (unfix) the thermostat and spring before
# initialising and running the more important NVE simulation
# -------------------------------------------------------------------------------

# System fixes: spring and nose-hoover thermostat
fix hex_spring_NVT hex_1 spring couple hex_2 1 0 0 0 ${r0} # adds harmonic spring between RBs
fix hex_spring_NVT hex_1 spring couple hex_2 1 0 0 0 0 
fix rigid_1_NVT hex_1 rigid/nvt/small molecule temp ${temp} ${temp} 1.0 tparam 10 3 3
fix rigid_1_NVT hex_1 rigid/nvt/small molecule temp 0.45 ${temp} 1.0 tparam 10 3 3
fix rigid_1_NVT hex_1 rigid/nvt/small molecule temp 0.45 0.45 1.0 tparam 10 3 3
  create bodies CPU = 1.19e-05 secs
1 rigid bodies with 7 atoms
  1 = max distance from body owner to body atom
fix rigid_2_NVT hex_2 rigid/nvt/small molecule temp ${temp} ${temp} 1.0 tparam 10 3 3
fix rigid_2_NVT hex_2 rigid/nvt/small molecule temp 0.45 ${temp} 1.0 tparam 10 3 3
fix rigid_2_NVT hex_2 rigid/nvt/small molecule temp 0.45 0.45 1.0 tparam 10 3 3
  create bodies CPU = 5.3e-06 secs
1 rigid bodies with 7 atoms
  1 = max distance from body owner to body atom

# Basic output to terminal
thermo ${log_freq}
thermo 100
thermo_style custom step f_hex_spring_NVT[*] temp pe ke etotal

# Set temperature and run simulation
velocity hex_1 create ${temp} ${seed}
velocity hex_1 create 0.45 ${seed}
velocity hex_1 create 0.45 5
WARNING: Changing velocities of atoms in rigid bodies. This has no effect unless rigid bodies are rebuild (src/velocity.cpp:71)
WARNING: Cannot count rigid body degrees-of-freedom before bodies are fully initialized (src/RIGID/fix_rigid_small.cpp:1157)
WARNING: Cannot count rigid body degrees-of-freedom before bodies are fully initialized (src/RIGID/fix_rigid_small.cpp:1157)
run 0
WARNING: Bonds are defined but no bond style is set (src/force.cpp:205)
WARNING: Likewise 1-2 special neighbor interactions != 1.0 (src/force.cpp:207)
WARNING: Angles are defined but no angle style is set (src/force.cpp:210)
WARNING: Likewise 1-3 special neighbor interactions != 1.0 (src/force.cpp:212)
WARNING: More than one fix rigid (src/RIGID/fix_rigid_small.cpp:561)
WARNING: More than one fix rigid (src/RIGID/fix_rigid_small.cpp:561)
Neighbor list info ...
  update every 1 steps, delay 10 steps, check yes
  max neighbors/atom: 2000, page size: 100000
  master list distance cutoff = 2.8
  ghost atom cutoff = 2.8
  binsize = 1.4, bins = 39 36 36
  1 neighbor lists, perpetual/occasional/extra = 1 0 0
  (1) pair lj/cut, perpetual
      attributes: half, newton on
      pair build: half/bin/newton
      stencil: half/bin/3d/newton
      bin: standard
Per MPI rank memory allocation (min/avg/max) = 17.88 | 17.88 | 17.88 Mbytes
Step f_hex_spring_NVT[1] f_hex_spring_NVT[2] f_hex_spring_NVT[3] f_hex_spring_NVT[4] Temp PotEng KinEng TotEng 
       0   0.28571429            0            0   0.28571429  0.010534861 -0.0043945312 0.0033862052 -0.001008326 
Loop time of 7e-07 on 1 procs for 0 steps with 14 atoms

142.9% CPU use with 1 MPI tasks x no OpenMP threads

MPI task timing breakdown:
Section |  min time  |  avg time  |  max time  |%varavg| %total
---------------------------------------------------------------
Pair    | 0          | 0          | 0          |   0.0 |  0.00
Bond    | 0          | 0          | 0          |   0.0 |  0.00
Neigh   | 0          | 0          | 0          |   0.0 |  0.00
Comm    | 0          | 0          | 0          |   0.0 |  0.00
Output  | 0          | 0          | 0          |   0.0 |  0.00
Modify  | 0          | 0          | 0          |   0.0 |  0.00
Other   |            | 7e-07      |            |       |100.00

Nlocal:    14 ave 14 max 14 min
Histogram: 1 0 0 0 0 0 0 0 0 0
Nghost:    0 ave 0 max 0 min
Histogram: 1 0 0 0 0 0 0 0 0 0
Neighs:    5 ave 5 max 5 min
Histogram: 1 0 0 0 0 0 0 0 0 0

Total # of neighbors = 5
Ave neighs/atom = 0.357143
Ave special neighs/atom = 6
Neighbor list builds = 0
Dangerous builds = 0
velocity all scale ${temp}
velocity all scale 0.45
WARNING: Changing velocities of atoms in rigid bodies. This has no effect unless rigid bodies are rebuild (src/velocity.cpp:71)
run 100000
WARNING: Bonds are defined but no bond style is set (src/force.cpp:205)
WARNING: Likewise 1-2 special neighbor interactions != 1.0 (src/force.cpp:207)
WARNING: Angles are defined but no angle style is set (src/force.cpp:210)
WARNING: Likewise 1-3 special neighbor interactions != 1.0 (src/force.cpp:212)
WARNING: More than one fix rigid (src/RIGID/fix_rigid_small.cpp:561)
WARNING: More than one fix rigid (src/RIGID/fix_rigid_small.cpp:561)
Per MPI rank memory allocation (min/avg/max) = 17.88 | 17.88 | 17.88 Mbytes
Step f_hex_spring_NVT[1] f_hex_spring_NVT[2] f_hex_spring_NVT[3] f_hex_spring_NVT[4] Temp PotEng KinEng TotEng 
       0   0.28571429            0            0   0.28571429         0.45 -0.0043945312   0.14464286   0.14024833 
     100   0.27462547 1.4738114e-05 -2.090617e-05   0.27462547   0.44411592 -0.0084122457   0.14275155    0.1343393 
     200   0.23681351 0.00013264079 -0.00030206496   0.23681374   0.98578122 -0.035125108   0.31685825   0.28173314 
     300   0.17341209 -0.0014027176 -0.0018952753   0.17342812    1.3825373  -0.22262105     0.444387   0.22176594 
     400   0.13302462  -0.01607981 0.0030819195   0.13402839    1.2668306  -0.52565185   0.40719554  -0.11845631 
     500   0.11622162 -0.0061208726  0.023860275   0.11880338   0.55114474  -0.48004236   0.17715367  -0.30288869 
     600  0.093450716 -0.0074230511  0.020243433  0.095905863     1.500259  -0.90384192   0.48222612   -0.4216158 
     700  0.065829765 0.0089937788  0.039993846  0.077549686    1.2055599   -1.2490605    0.3875014   -0.8615591 
     800  0.050978159  0.029413768  0.056453379  0.081553212    0.4205103   -1.1845821   0.13516403   -1.0494181 
     900  0.046098984  0.037578851  0.047129591  0.075884681   0.62888913   -1.3225355   0.20214293   -1.1203926 
    1000  0.051082105  0.032625602  0.038243769  0.071668663   0.56013487   -1.3478801   0.18004335   -1.1678367 
    1100  0.061597275  0.028874648  0.033617443  0.075882159   0.25013288   -1.2849397  0.080399854   -1.2045398 
    1200  0.071053427  0.023862849  0.028638954  0.080238487   0.12298804   -1.2385875  0.039531869   -1.1990556 
    1300  0.066926782  0.033640313   0.01846067  0.077147009   0.64495932   -1.3596619   0.20730835   -1.1523536 
    1400  0.071177689  0.038245601  0.014221324  0.082044107   0.51949651   -1.2561857   0.16698102   -1.0892047 
    1500  0.067937114  0.027097036  0.036677412  0.081822573    1.5103573   -1.3738726     0.485472  -0.88840055 
    1600  0.079553347  0.032283256  0.044246543  0.096585197   0.31344241  -0.90044968   0.10074935  -0.79970033 
    1700  0.059184658   0.05271685  0.041650029  0.089535551    1.0535211   -1.0638382   0.33863178  -0.72520644 
    1800  0.031374676   0.07388631  0.018269501  0.082324551    1.3771809   -1.2543016    0.4426653  -0.81163627 
    1900  0.035307821  0.068372502   -0.0183738  0.079114081    0.5131475   -1.2119962   0.16494027    -1.047056 
    2000  0.046645965  0.058068461 -0.028188601   0.07963912   0.36049773   -1.2491606   0.11587427   -1.1332863 
    2100  0.052579559  0.053526777 -0.027123162  0.079783405   0.37919216   -1.3247044   0.12188319   -1.2028212 
    2200  0.059623877  0.051237222 -0.023554228  0.082067419   0.23302308   -1.2929412  0.074900275   -1.2180409 
    2300  0.051846705    0.0499584 -0.035349355  0.080209098   0.27449399   -1.2769314  0.088230211   -1.1887012 
    2400  0.028580849   0.04829165 -0.052712161  0.076990391    1.1246701   -1.3919758    0.3615011   -1.0304747 
    2500 0.0026953315  0.051323634 -0.062928417   0.08124879   0.72291294   -1.1850147   0.23236487  -0.95264984 
    2600 -0.011816029  0.060715263 -0.047633002  0.078069613    1.0079266   -1.3335625    0.3239764   -1.0095861 
    2700 -0.016077525  0.062599807 -0.048096156  0.080563409   0.46686462   -1.2921748   0.15006363   -1.1421112 
    2800 -0.023264793  0.034540792 -0.062061589  0.074739265   0.60568091   -1.3027109   0.19468315   -1.1080277 
    2900 -0.035157569  0.010321705 -0.075699401   0.08410108   0.38812605     -1.20955    0.1247548   -1.0847952 
    3000  -0.01977028 0.0015441314 -0.083205366  0.085535848   0.39000588    -1.198229   0.12535903   -1.0728699 
    3100 -0.008612497 0.0040824109 -0.082276676  0.082826883   0.68574942   -1.3078663   0.22041946   -1.0874469 
    3200  -0.01572271  0.028238498 -0.073302943  0.080112033   0.51788942   -1.2541856   0.16646446   -1.0877211 
    3300 -0.049032978  0.028416042 -0.059668604  0.082292445   0.73791188   -1.2929731   0.23718596   -1.0557872 
    3400 -0.070501384 0.0095804381 -0.048859543  0.086310398   0.29983547   -1.1848604  0.096375688   -1.0884848 
    3500 -0.069982576 -0.012403953 -0.044630889  0.083924581   0.50220258    -1.276492   0.16142226   -1.1150697 
    3600  -0.05507251  -0.01226127 -0.054183889  0.078225404   0.54863307   -1.3273176   0.17634634   -1.1509712 
    3700 -0.053042873 -0.00063371657 -0.061812117  0.081453581   0.47032095   -1.3352119   0.15117459   -1.1840373 
    3800 -0.061193489 0.0084708789 -0.051421765  0.080377838   0.32892598   -1.2781763   0.10572621     -1.17245 
    3900 -0.061598881  0.030365305   -0.0409635  0.079965507   0.55842499   -1.2231589   0.17949375   -1.0436651 
    4000 -0.071455535  0.024132517 -0.0085079408  0.075898992   0.76840257   -1.2787245   0.24698654   -1.0317379 
    4100 -0.076654683  0.019545483  0.019536771  0.081484059     0.348928   -1.2129039   0.11215543   -1.1007484 
    4200  -0.07158509 0.0056778069  0.030177889  0.077893309   0.60432123   -1.3604312   0.19424611   -1.1661851 
    4300 -0.066035902 0.0042896741  0.046176002  0.080693028   0.44034841   -1.3416479   0.14154056   -1.2001073 
    4400 -0.058195263 0.0040742829  0.052659003  0.078589178   0.40205513   -1.3528322   0.12923201   -1.2236002 
    4500  -0.05194716 -0.010656769  0.061891111  0.081502047    0.4736198   -1.3528811   0.15223493   -1.2006461 
    4600 -0.039317897 -0.012138474  0.068735263  0.080111023   0.37317595   -1.3205223   0.11994941   -1.2005729 
    4700 -0.021769818  -0.01601832  0.071056032  0.076022833     0.557888   -1.3614949   0.17932114   -1.1821738 
    4800 -0.0084191677 -0.034223031  0.073783742  0.081768814   0.50648507   -1.3287144   0.16279877   -1.1659156 
    4900  0.010195086  -0.02960868  0.078116117  0.084159025   0.37691612   -1.2894785   0.12115161   -1.1683269 
    5000  0.016144564 -0.041884829  0.062814417   0.07720516   0.49323183   -1.3577789    0.1585388   -1.1992401 
    5100  0.008796349 -0.059951909  0.052472103  0.080155653   0.47963232   -1.3820558   0.15416753   -1.2278883 
    5200 0.0084559815  -0.05942959  0.049333506  0.077699257    0.2731741   -1.3394154  0.087805962   -1.2516094 
    5300  0.021822183 -0.073332567  0.036060451  0.084582677   0.28780514   -1.3260678  0.092508794    -1.233559 
    5400   0.01960539 -0.068495978  0.033338243   0.07866072   0.32314703   -1.3264957   0.10386869    -1.222627 
    5500 0.0057988559 -0.075894485  0.032023806  0.082577986   0.49051586   -1.3706907   0.15766581   -1.2130249 
    5600  0.015150062 -0.067455099  0.027885948  0.074547575    0.1251773   -1.2213843  0.040235559   -1.1811487 
    5700  0.010044739 -0.080684544  0.014679909  0.082621983   0.62280061   -1.3229789   0.20018591    -1.122793 
    5800  0.027000654 -0.072700229 -0.011942509  0.078466439   0.65859543   -1.2454455   0.21169139   -1.0337541 
    5900  0.047468099 -0.058595855 -0.040470146  0.085583452   0.89667424   -1.2678028   0.28821672  -0.97958609 
    6000   0.04011922 -0.046300314 -0.048943316  0.078413768    1.2055949   -1.3533172   0.38751264  -0.96580454 
    6100  0.021765207  -0.03892829 -0.061315148  0.075820073   0.67401485   -1.2542562   0.21664763   -1.0376085 
    6200  0.013132526 -0.026976813 -0.069977488   0.07613843   0.42949953   -1.2816444   0.13805342    -1.143591 
    6300 0.0061035807 -0.024101044 -0.072026973  0.076197105   0.28785697    -1.275184  0.092525455   -1.1826586 
    6400 -0.0068537478 -0.015119376 -0.081942088  0.083606669   0.41644267   -1.3381973   0.13385657   -1.2043407 
    6500 0.0010394864 -0.0098877995 -0.078554883  0.079181555   0.33481905   -1.2579275   0.10762041   -1.1503071 
    6600  0.013175889 -0.0062748352 -0.072546636  0.073999946   0.64445873    -1.327848   0.20714745   -1.1207005 
    6700  0.011537196 -0.014189927 -0.070675091  0.073002941   0.43566729   -1.2654035   0.14003591   -1.1253676 
    6800 0.00017441176 -0.024442409 -0.073550513   0.07750574   0.57436573    -1.304403   0.18461756   -1.1197855 
    6900 -0.0060028595 -0.022470429 -0.073887745  0.077461947   0.51381828   -1.2816617   0.16515588   -1.1165058 
    7000 -0.0090381718 -0.0017234498 -0.070495354  0.071093275   0.65920993   -1.3376501   0.21188891   -1.1257612 
    7100 -0.015462695  0.021243177 -0.072208808  0.076840611    0.5133726   -1.3071443   0.16501262   -1.1421317 
    7200 -0.034723839  0.031115801 -0.067633247  0.082147393   0.51027767   -1.2980112   0.16401782   -1.1339934 
    7300 -0.051580197  0.017505081 -0.060266352  0.081234092   0.52902027   -1.2824886   0.17004223   -1.1124463 
    7400 -0.055543455  0.023556846 -0.051013101  0.079008461   0.68339733    -1.285048   0.21966343   -1.0653846 
    7500 -0.053418604  0.044292304 -0.047018848  0.083821999   0.85268224   -1.2861011   0.27407643   -1.0120246 
    7600  -0.04313113  0.035371898 -0.051740921  0.076082773   0.74094803    -1.265802   0.23816187   -1.0276402 
    7700 -0.037495339  0.041343063 -0.062300646  0.083645202   0.47185816   -1.2254255   0.15166869   -1.0737568 
    7800 -0.048069149  0.048094751 -0.039654658  0.078716199   0.58607716    -1.284445   0.18838194   -1.0960631 
    7900 -0.062692505  0.051664488 -0.018543883  0.083327337     0.542544   -1.2859919   0.17438914   -1.1116028 
    8000 -0.063405426  0.039057235 -0.014488353  0.075865855   0.49875409   -1.2971763   0.16031381   -1.1368625 
    8100  -0.07307369  0.019078808 -0.017604767  0.077548004   0.22880779   -1.2208611  0.073545362   -1.1473157 
    8200 -0.074264121  0.017039332 -0.021991367  0.079303965   0.34912052   -1.2560376   0.11221731   -1.1438203 
    8300 -0.067524467  0.030201143 -0.028472929  0.079261405   0.34442125   -1.2239256   0.11070683   -1.1132188 
    8400   -0.0654994  0.036417012 -0.031523003  0.081302336    0.3590416   -1.2248471   0.11540623   -1.1094409 
    8500  -0.06573091  0.036546991 -0.043964387  0.087115454   0.35965402   -1.2067696   0.11560308   -1.0911665 
    8600 -0.068990291  0.028607649 -0.048630834  0.089123599   0.20278902   -1.1489333  0.065182186   -1.0837511 
    8700 -0.069034456  0.018996355 -0.025287034  0.075934523   0.77096066   -1.2484063   0.24780879   -1.0005975 
    8800 -0.082995399 -0.00034520599 -0.013717664  0.084122112    1.0223329   -1.2654271     0.328607  -0.93682008 
    8900  -0.08217118 0.00084749206 -0.0035400642  0.082251767    1.0396008   -1.2315657   0.33415741  -0.89740824 
    9000 -0.076438566 0.0014920834 -0.004655927  0.076594767    1.3038189   -1.3060456   0.41908466  -0.88696092 
    9100 -0.086131888 -0.013938102 0.0002739949  0.087252782   0.62434099   -1.1194342   0.20068103  -0.91875313 
    9200 -0.072972658 -0.011455949 -0.0032338206   0.07393717   0.55257224   -1.1507463    0.1776125   -0.9731338 
    9300  -0.07605802  -0.01308319 -0.0038602822  0.077271561   0.72409716   -1.2463932   0.23274552   -1.0136477 
    9400 -0.067684792  0.003719617 -0.021498358  0.071114316    1.2998336   -1.3270896   0.41780367  -0.90928592 
    9500 -0.071366392  0.027791522 -0.037441366  0.085248968   0.96462062   -1.1993326   0.31005663  -0.88927593 
    9600 -0.068478402  0.034427524 -0.028871196  0.081902942   0.89621409    -1.283971   0.28806882  -0.99590223 
    9700 -0.067120574  0.026365031 -0.020163592  0.074878947   0.34252506   -1.1482332   0.11009734   -1.0381359 
    9800 -0.080873898  0.027849931 -0.0087944335  0.085985744   0.60335221   -1.2682485   0.19393464   -1.0743139 
    9900  -0.06990228  0.032359699 -0.019484341  0.079455134   0.85246757   -1.3424197   0.27400743   -1.0684122 
   10000 -0.066705353  0.036401043 -0.020468148  0.078699333    0.6728929   -1.2744819     0.216287   -1.0581949 
   10100  -0.06661939  0.027321824 -0.030743405  0.078292926   0.21123494   -1.1285835  0.067896947   -1.0606865 
   10200 -0.067131576  0.040244577 -0.024976372  0.082158954   0.43249858   -1.1877926    0.1390174   -1.0487752 
   10300 -0.061709113  0.043485385 -0.024073037  0.079237014   0.70669739   -1.2968522   0.22715273   -1.0696995 
   10400 -0.056245497  0.055167965 -0.028134513  0.083657702   0.20311917   -1.1719811  0.065288305   -1.1066928 
   10500 -0.048325641  0.052639064 -0.034220762  0.079229409   0.43189351   -1.2665984   0.13882291   -1.1277755 
   10600 -0.038682395  0.063436794 -0.039589848   0.08418973   0.35022589   -1.2573428   0.11257261   -1.1447702 
   10700 -0.022323375  0.054668464 -0.058272526  0.082961807   0.58479827   -1.2994441   0.18797087   -1.1114732 
   10800 -0.027010259   0.03120347 -0.068630221  0.080083193   0.59166728   -1.2962091   0.19017877   -1.1060303 
   10900 -0.038661663  0.029325906 -0.067031103   0.08275205   0.41069631   -1.2495384   0.13200953   -1.1175289 
   11000 -0.047406641  0.027693378 -0.061903521  0.082742726   0.65964071   -1.3097738   0.21202737   -1.0977464 
   11100 -0.039798331  0.040597051 -0.048199644  0.074533438    0.5876424   -1.2411278   0.18888506   -1.0522427 
   11200 -0.030899946  0.067029122 -0.047047151  0.087527963   0.39257039    -1.161647   0.12618334   -1.0354637 
   11300 -0.0097626178  0.063166652 -0.054015354  0.083683887   0.42606021   -1.1365503   0.13694792  -0.99960236 
   11400 0.0061689389  0.063238354 -0.056496915    0.0850238   0.50230417   -1.1263614   0.16145491  -0.96490651 
   11500  0.028029864  0.063273627 -0.059493598  0.091261785   0.37219705   -1.0226073   0.11963477  -0.90297252 
   11600  0.043934937  0.055248415  -0.05748003  0.091030873   0.60645333   -1.0261925   0.19493143  -0.83126107 
   11700  0.038332164  0.034921291 -0.065099976  0.083227749    1.0171915    -1.142101   0.32695441  -0.81514661 
   11800  0.027664408   0.01121101 -0.071200003  0.077203929    1.1215547   -1.1834397   0.36049973  -0.82293996 
   11900  0.017343598 0.0016353312 -0.077846739   0.07977211   0.68004386    -1.151378   0.21858553  -0.93279244 
   12000 0.0024936395  0.020174532 -0.075638701  0.078322686    1.0584007   -1.3933875   0.34020023   -1.0531873 
   12100  0.018707191   0.03957076 -0.066280848  0.079428929    0.6099243   -1.3137507    0.1960471   -1.1177036 
   12200  0.040868561  0.023686377 -0.062271669  0.078160376   0.65083031   -1.3423333   0.20919546   -1.1331378 
   12300  0.044777403 0.0034293514 -0.062812529  0.077215219   0.59230116   -1.3015784   0.19038251   -1.1111958 
   12400  0.027740223 -0.021556897  -0.07096029  0.079180696   0.75663997   -1.3036964   0.24320571   -1.0604907 
   12500 0.0023482585 -0.013598264 -0.076748852   0.07797957   0.73064949   -1.2457243   0.23485162   -1.0108727 
   12600 -0.0039390154 -0.020615105 -0.077886634    0.0806649    1.3032111   -1.3578055   0.41888927   -0.9389162 
   12700  0.021905767 -0.041968323 -0.067870221  0.082750044    1.0790104   -1.3058327   0.34682478  -0.95900788 
   12800 0.0065073703 -0.040639702 -0.066819673  0.078478022   0.82650813    -1.329245   0.26566333   -1.0635817 
   12900 -0.0073640461 -0.039903255 -0.068209501   0.07936646    1.0094662   -1.3576987   0.32447129   -1.0332274 
   13000 -0.020714025 -0.012241696 -0.079378946  0.082945446   0.66064054   -1.2542205   0.21234875   -1.0418718 
   13100 0.00017298977 -0.0077951868 -0.076627473  0.077023142   0.68331744    -1.296408   0.21963775   -1.0767702 
   13200 -0.0013000159 -0.00085131263 -0.084985534   0.08499974   0.54411703   -1.2712507   0.17489476   -1.0963559 
   13300 -0.019254372 -0.015011091 -0.074638803  0.078530342   0.74700331   -1.3135989   0.24010821   -1.0734907 
   13400 -0.048535125 -0.011990029 -0.081395069  0.095522649     0.267038   -1.0781825  0.085833642  -0.99234883 
   13500 -0.036984849  -0.01017646 -0.065226821   0.07567019    1.1024077   -1.2618543   0.35434533  -0.90750901 
   13600 -0.050424607 -0.0047899707 -0.063150784  0.080954347   0.82951759   -1.1558667   0.26663066  -0.88923604 
   13700 -0.047394268 -0.026026181  -0.04956397  0.073349614   0.42142264    -1.143087   0.13545728   -1.0076297 
   13800 -0.071853931 -0.038016788 -0.042399471  0.091684124   0.30797473   -1.1884996  0.098991878   -1.0895077 
   13900 -0.050696917 -0.037279884 -0.046180937  0.078055404   0.36000012   -1.2307024   0.11571432   -1.1149881 
   14000 -0.045568135 -0.056906522 -0.040193021   0.08324834   0.29173166   -1.2186682  0.093770892   -1.1248973 
   14100 -0.047742832 -0.064836181 -0.034555716  0.087619666   0.24282503   -1.1964257  0.078050902   -1.1183748 
   14200  -0.05422264 -0.055125631 -0.028363114  0.082361375    0.5359046   -1.2218198   0.17225505   -1.0495647 
   14300 -0.056924517 -0.039845055 -0.032120101  0.076548873   0.87165242   -1.2803627   0.28017399   -1.0001887 
   14400 -0.059365395 -0.032420298 -0.052524088  0.085639393    0.3829964   -1.0666052   0.12310599  -0.94349917 
   14500 -0.049649932 -0.030727322 -0.062831789  0.085773643    0.7956721   -1.2834799   0.25575175   -1.0277282 
   14600 -0.052718545 -0.029154636 -0.044129915   0.07467722   0.55051743   -1.2546636   0.17695203   -1.0777115 
   14700 -0.058932034 -0.025826216 -0.031851898  0.071794996   0.31034329   -1.2515556  0.099753199   -1.1518024 
   14800 -0.061197563   -0.0380594 -0.021022877  0.075070773   0.15918543   -1.2157886  0.051166746   -1.1646219 
   14900 -0.058365506 -0.045189569 -0.020752458  0.076676554   0.44678547   -1.3015387   0.14360962   -1.1579291 
   15000 -0.050920807 -0.057560464 -0.021995788  0.079937165   0.46404906   -1.2670976   0.14915863   -1.1179389 
   15100 -0.045925154 -0.066306329 -0.022601019  0.083764283   0.75274231   -1.2767525   0.24195289   -1.0347996 
   15200 -0.058349648 -0.051676058 -0.0024110241  0.077980186   0.92296107   -1.2479904   0.29666606  -0.95132432 
   15300 -0.074720262 -0.031262204 -0.009700038  0.081575326     1.013821   -1.2463772   0.32587104  -0.92050614 
   15400 -0.069419443 -0.035754052 -0.0093967932  0.078649291   0.60104601   -1.1568933   0.19319336  -0.96369996 
   15500 -0.049319136 -0.059806041  0.013295474  0.078650552   0.91060509   -1.2619049   0.29269449  -0.96921041 
   15600 -0.039012854 -0.075685431  0.027374671  0.089440818   0.25641652    -1.086968  0.082419597   -1.0045484 
   15700 -0.031666283  -0.07862722  0.028541507  0.089440544   0.32588396   -1.1036785   0.10474841  -0.99893009 
   15800 -0.033788366  -0.06921922 0.0094497974  0.077603175   0.52281424    -1.101931   0.16804743   -0.9338836 
   15900 -0.035450951 -0.074764575 -0.017658357   0.08460691   0.97904246   -1.2500436   0.31469222  -0.93535138 
   16000 -0.034586254 -0.086206383 -0.029710993  0.097521754   0.37676001   -1.1133899   0.12110143  -0.99228843 
   16100 -0.034512588 -0.063725669 -0.014510051  0.073909548   0.61406393   -1.2396185   0.19737769   -1.0422408 
   16200 -0.047105622 -0.060955141 -0.020909755  0.079822846   0.79933101   -1.3259579   0.25692783   -1.0690301 
   16300 -0.044686573 -0.064330896 -0.019306331  0.080672724   0.61521418   -1.2386281   0.19774741   -1.0408807 
   16400 -0.025755101 -0.065825049 -0.033100422  0.078050626   0.71146623   -1.2931199   0.22868558   -1.0644344 
   16500 -0.012922507 -0.065898698 -0.033105123  0.074870413   0.48599235   -1.2356304   0.15621183   -1.0794185 
   16600 -0.0071525136 -0.071305887 -0.024155285  0.075625166   0.54815892   -1.2508177   0.17619394   -1.0746237 
   16700 -0.0033041202  -0.07500506  -0.02052605  0.077833123   0.46600215   -1.2162986   0.14978641   -1.0665122 
   16800 -0.016582286 -0.076265072 -0.027969657  0.082907389    0.4993287    -1.242032   0.16049851   -1.0815335 
   16900 -0.021633298 -0.068726293  -0.04327215  0.084046308   0.29219036   -1.1485144  0.093918331   -1.0545961 
   17000 -0.030055632 -0.062077549 -0.055551247  0.088560172   0.37260825   -1.1527843   0.11976694   -1.0330174 
   17100  -0.01798985 -0.040181397 -0.070289587  0.082938564   0.63559733    -1.216031   0.20429914   -1.0117318 
   17200 0.0028800582 -0.023304092 -0.080106964  0.083477549   0.78307805   -1.2242629   0.25170366  -0.97255924 
   17300 0.0030609853 -0.017788712 -0.075657248  0.077780634   0.24831491   -1.0577151  0.079815507  -0.97789958 
   17400 -0.00027017222 -0.012395611 -0.077664833  0.078648271   0.38620978   -1.1379653   0.12413886   -1.0138265 
   17500   0.02709072 -0.010510725 -0.071264853   0.07696143    1.1313657   -1.3313683   0.36365325  -0.96771507 
   17600  0.051284973 -0.00039376041 -0.080655261    0.0955802   0.34153622   -1.0616766    0.1097795  -0.95189705 
   17700  0.031646028 -0.012585012 -0.068696975  0.076675472   0.70115999   -1.1457773   0.22537285  -0.92040445 
   17800  0.020169203 -0.037402268 -0.070905626  0.082663984   0.96742656   -1.3035965   0.31095854  -0.99263799 
   17900  0.018043311 -0.047601522 -0.079655997  0.094533295   0.22960644   -1.1163999  0.073802071   -1.0425979 
   18000   0.03493742 -0.026675917   -0.0671959  0.080296431   0.50845813   -1.2073563   0.16343297   -1.0439233 
   18100  0.052220563 -0.032269165 -0.054545064  0.082118513   0.55541317   -1.2708093   0.17852566   -1.0922837 
   18200  0.052259233 -0.040407025 -0.054523548  0.085653794   0.39318804   -1.2444195   0.12638187   -1.1180377 
   18300  0.045239567 -0.024261022 -0.061173239  0.079858505   0.24016697   -1.2069271  0.077196526   -1.1297306 
   18400  0.043652247 -0.017151042  -0.06206748  0.077794916   0.49233035   -1.2454977   0.15824904   -1.0872487 
   18500  0.048513485 -0.0025396966 -0.062902204  0.079477641    0.2834397   -1.1537878  0.091105619   -1.0626822 
   18600  0.049466512 -0.013676497 -0.060040962  0.078986704   0.44645151   -1.1789117   0.14350227   -1.0354095 
   18700  0.045385507 -0.021613264 -0.065377193  0.082469115   0.22995265   -1.1437796  0.073913351   -1.0698662 
   18800  0.036214739 -0.028210848 -0.068639014  0.082575259     0.597329   -1.2769214   0.19199861   -1.0849228 
   18900  0.021079467 -0.019088679 -0.075484924   0.08066409   0.42317769   -1.2056546    0.1360214   -1.0696332 
   19000  0.022441305 -0.0098298737 -0.072594543  0.076617271   0.79983913   -1.3284717   0.25709115   -1.0713806 
   19100  0.015088052 0.0016639915 -0.086565782   0.08788659   0.45628494   -1.2305777   0.14666302   -1.0839147 
   19200  0.027867364 0.00055273156 -0.077938018  0.082772158   0.15150399   -1.1462967   0.04869771    -1.097599 
   19300  0.028141276   0.01985821 -0.083070913  0.089928063   0.29214282   -1.2276494   0.09390305   -1.1337464 
   19400   0.01526367 0.0054121405 -0.073509148  0.075271945   0.58477448   -1.3302208   0.18796323   -1.1422576 
   19500 0.00097809117 0.0012330875 -0.077856093     0.077872   0.49224537   -1.2964871   0.15822173   -1.1382653 
   19600  -0.01209437  -0.01136649  -0.08019192  0.081891482   0.54906023   -1.3100255   0.17648365   -1.1335418 
   19700 -0.021265774 -0.017854226 -0.078864738  0.083610128    0.4473718   -1.2759054   0.14379808   -1.1321073 
   19800 -0.021042879 -0.019603786 -0.071554312  0.077117643    0.4231466   -1.2745125   0.13601141   -1.1385011 
   19900 -0.030556058 -0.026790515 -0.068665165  0.079789155   0.46533978   -1.2661748    0.1495735   -1.1166013 
   20000 -0.048926001 -0.031624862   -0.0565661  0.081201042    0.9964703   -1.3858644   0.32029402   -1.0655704 
   20100 -0.066242886 -0.025467434 -0.042544685  0.082745153   0.62452036   -1.2610157   0.20073869    -1.060277 
   20200 -0.064720833 -0.027481163 -0.035727699   0.07886995   0.65109661   -1.3263844   0.20928105   -1.1171034 
   20300 -0.072749289 -0.025233577 -0.018726996  0.079245775   0.51297873   -1.3254186   0.16488602   -1.1605326 
   20400 -0.069608373 -0.024955464 -0.018976931   0.07634281   0.43518826   -1.3203353   0.13988194   -1.1804534 
   20500 -0.072293522 -0.023887731 -0.011121901  0.076945914   0.46114175   -1.3327809   0.14822413   -1.1845567 
   20600 -0.079884725  -0.02117277 0.0067542065  0.082918483   0.59861652   -1.3343883   0.19241245   -1.1419758 
   20700 -0.077427832 -0.015357314  0.013075535  0.080011786   0.90937499   -1.3340575    0.2922991   -1.0417584 
   20800 -0.073168661 0.00027368526  0.023212748  0.076763009   0.79847611   -1.2266058   0.25665303  -0.96995272 
   20900 -0.069971316  0.012471952  0.026323533  0.075792236   0.45944072   -1.2027137   0.14767737   -1.0550363 
   21000 -0.063989511  0.012427528  0.035572595   0.07425975   0.40046755   -1.2665352   0.12872171   -1.1378135 
   21100 -0.054941013 0.0084947973  0.047959675  0.073422115   0.46540484   -1.3114649   0.14959441   -1.1618705 
   21200 -0.049286575  0.019479547   0.04793754  0.071460667   0.45593146   -1.3340853    0.1465494   -1.1875359 
   21300 -0.051985099  0.016843257  0.049096293  0.073461499    0.3785655   -1.2943305   0.12168177   -1.1726488 
   21400 -0.049567975 0.0024533718  0.056263232  0.075023692   0.51225567   -1.3126614   0.16465361   -1.1480078 
   21500 -0.042242185 -0.0034013677  0.065606639  0.078103793   0.32818816   -1.2008846   0.10548905   -1.0953955 
   21600 -0.035319779 -0.020595554  0.074434605   0.08492452   0.86736151   -1.3008188   0.27879477    -1.022024 
   21700 -0.036610813 -0.017586462  0.071555507  0.082278952   0.86883332   -1.2266638   0.27926785  -0.94739597 
   21800 -0.021702422 -0.012839352   0.07761146  0.081605042    0.6848193   -1.1929997   0.22012049  -0.97287921 
   21900 -0.021632921 -0.0043889918  0.074597605  0.077794918   0.78940369   -1.2865191    0.2537369   -1.0327822 
   22000  -0.01001111 -0.0024288396  0.085349803  0.085969241   0.40962971    -1.253042   0.13166669   -1.1213753 
   22100 -0.018036722  -0.02223783  0.072648636  0.078087571   0.66646995   -1.2898606   0.21422248   -1.0756381 
   22200 -0.016132444  -0.04587521   0.06782547  0.083457085    0.6414007   -1.2918993   0.20616451   -1.0857348 
   22300 -0.015848239 -0.041426261  0.065807609  0.079359581   0.76071859   -1.3035182   0.24451669   -1.0590015 
   22400  -0.01640549 -0.031930648  0.075343418  0.083458595   0.66088673   -1.2854142   0.21242788   -1.0729863 
   22500 -0.011855746  -0.04305852  0.066624741  0.080208796   0.33287501   -1.2029883   0.10699554   -1.0959927 
   22600 -0.00051137397 -0.050403645  0.065445298  0.082606755   0.54231552   -1.2977397    0.1743157    -1.123424 
   22700 -0.012008707 -0.051450203  0.056560355  0.077397715   0.52252257   -1.2917456   0.16795368   -1.1237919 
   22800 -0.027764879 -0.053453625  0.057548961  0.083307032   0.70681901    -1.316789   0.22719182   -1.0895971 
   22900 -0.018840443 -0.052147089  0.050329568  0.074882219    0.8658059    -1.331211   0.27829475   -1.0529163 
   23000 0.0012057645 -0.057745893  0.057050191  0.081183535   0.78498961   -1.3687621   0.25231809   -1.1164441 
   23100 0.0025703782 -0.066835321  0.040130594  0.078000202   0.43199104   -1.3246216   0.13885426   -1.1857673 
   23200 0.0048842299  -0.07316991  0.033545632  0.080641186   0.41201664    -1.320641   0.13243392   -1.1882071 
   23300 -0.012528763 -0.072231463   0.02924111  0.078926527   0.38385607    -1.269276   0.12338231   -1.1458937 
   23400 -0.033464261 -0.060596898  0.038443141  0.079181538   0.91835648   -1.3557688   0.29518601   -1.0605828 
   23500 -0.043703121 -0.039954222  0.059833193  0.084180245   0.60405033   -1.1849271   0.19415903  -0.99076807 
   23600 -0.029592511 -0.015702089  0.071975372  0.079389712     1.008033   -1.2951523   0.32401062   -0.9711417 
   23700 -0.017934724 -0.010142316   0.08392272  0.086414951   0.41695946    -1.156102   0.13402269   -1.0220793 
   23800 -0.016409463 -0.022871027  0.070279113  0.075706724   0.99761434    -1.273239   0.32066175   -0.9525772 
   23900 -0.0086182855 -0.043281072  0.083624292  0.094554472   0.53510028   -1.0519923   0.17199652  -0.87999577 
   24000   -0.0186059 -0.034738524  0.074256719   0.08406548   0.88972341   -1.1876835   0.28598252  -0.90170101 
   24100 -0.013951631 -0.043768718  0.069910045  0.083652633   0.93418601    -1.198874   0.30027407  -0.89859989 
   24200 -0.015963648 -0.032251642  0.070311721  0.078985723    0.5236531   -1.2484967   0.16831707   -1.0801796 
   24300 -0.025579047 -0.024920623  0.068462603  0.077216922   0.54268109   -1.3664894   0.17443321   -1.1920562 
   24400 -0.021503697 -0.031357248  0.068454098   0.07830485   0.72263416   -1.3934631   0.23227526   -1.1611878 
   24500 -0.017694694 -0.042558008  0.064066632  0.078922871   0.61195159   -1.3319763   0.19669873   -1.1352776 
   24600 -0.022010799 -0.047329363  0.064301646  0.082820562   0.48781684   -1.3135464   0.15679827   -1.1567482 
   24700 -0.015178241 -0.054684352  0.056825422  0.080311182   0.46408764   -1.3386791   0.14917103   -1.1895081 
   24800 -0.015110145 -0.056847278  0.054014746  0.079859391   0.44698559   -1.3303786   0.14367394   -1.1867047 
   24900 -0.0068949907 -0.061035486  0.048464927  0.078241425   0.57894066   -1.3371187   0.18608807   -1.1510307 
   25000 -0.0061842463 -0.065732068  0.047498295  0.081332882   0.96545486   -1.3739813   0.31032478   -1.0636566 
   25100 -0.0013220673 -0.068564696  0.034247033  0.076653276    1.2317289   -1.3804869   0.39591287  -0.98457405 
   25200 0.0034600111 -0.080603587  0.044604709  0.092187255   0.48316531   -1.1159935   0.15530314  -0.96069032 
   25300  0.011003765 -0.079142205  0.022783014  0.083088129    1.0732756   -1.2713018   0.34498144  -0.92632031 
   25400  0.017663175 -0.080272493  0.022260223  0.085153852   0.70972738   -1.1620387   0.22812666  -0.93391201 
   25500  0.029230031 -0.077063042 0.0080256653  0.082810135   0.82777819   -1.2143897   0.26607156  -0.94831809 
   25600  0.041983328 -0.070864572 0.0072858698  0.082689004   0.85673829   -1.2545781   0.27538017  -0.97919795 
   25700  0.057859896 -0.056199869 -0.0051967514  0.080828207   0.67197391   -1.2574842   0.21599162   -1.0414926 
   25800  0.064799916 -0.044192945 -0.0081385857  0.078856085   0.63883613   -1.3339563   0.20534018   -1.1286161 
   25900  0.066624399 -0.044705979 -0.0014148287  0.080246102   0.38183289   -1.2884359     0.122732   -1.1657039 
   26000  0.065752592 -0.040181294 -0.0033235831   0.07712967   0.76729149   -1.3955876   0.24662941   -1.1489582 
   26100   0.06492027 -0.047564172 0.00070315582  0.080482833   0.53467001   -1.2856747   0.17185822   -1.1138165 
   26200  0.057597912 -0.055564188  0.013137671  0.081101768   0.67563781   -1.3412894    0.2171693   -1.1241201 
   26300  0.059894194 -0.050203152  0.012914038  0.079211384   0.63338383   -1.3315454   0.20358766   -1.1279577 
   26400  0.059772619 -0.050254528 0.0080360929    0.0785039   0.48718644   -1.2884845   0.15659564   -1.1318889 
   26500  0.056056526 -0.055937189 0.0063004096  0.079441792   0.79979515   -1.3566755   0.25707701   -1.0995985 
   26600   0.04490499 -0.063298566   0.01839214  0.079758619   0.56439562   -1.2402244   0.18141288   -1.0588115 
   26700  0.016806692 -0.067843701  0.019210225  0.072486312   0.81274652   -1.3073584   0.26123995   -1.0461184 
   26800 -0.0084745897  -0.08050331  0.016724105  0.082657711   0.68726786   -1.2348718   0.22090753   -1.0139643 
   26900 -0.016661294 -0.075146725   0.02140218  0.079891691    0.8061695   -1.2817855   0.25912591   -1.0226596 
   27000 -0.021320656 -0.065935062  0.036379623  0.078265444   0.69336862   -1.2435051   0.22286848   -1.0206366 
   27100 -0.039127039 -0.054340879  0.052722213    0.0852261   0.99319496   -1.2059872   0.31924124  -0.88674599 
   27200 -0.036769114 -0.050072044  0.054098842  0.082376344    1.2594002   -1.2539067   0.40480722   -0.8490995 
   27300 -0.036254045 -0.053301745  0.044586202  0.078379597   0.95984026   -1.3591259   0.30852008   -1.0506058 
   27400 -0.047843146 -0.049369745  0.033281975  0.076380811   0.41984125   -1.3170089   0.13494897   -1.1820599 
   27500 -0.053924348 -0.048603921  0.029647263  0.078416431   0.33793424   -1.3436817   0.10862172     -1.23506 
   27600 -0.055531611 -0.051752745  0.016885034  0.077763814   0.36854744   -1.3829099   0.11846168   -1.2644482 
   27700 -0.058158798 -0.051909073 -0.00030073537   0.07795568   0.33369099   -1.3800429   0.10725782   -1.2727851 
   27800   -0.0622985 -0.048304323 -0.021188089   0.08162932   0.18837672   -1.3184203  0.060549661   -1.2578706 
   27900 -0.063319859 -0.043284836 -0.022440869  0.079916044   0.29522815   -1.3368143  0.094894763   -1.2419196 
   28000  -0.06044246 -0.049766477 -0.024068313  0.081910176   0.65409282    -1.348991   0.21024412   -1.1387468 
   28100 -0.054395932 -0.029990524 -0.044981383  0.076692071   0.95022237    -1.282939   0.30542862   -0.9775104 
   28200 -0.046944615 -0.011048632 -0.062985253  0.079328502     0.883197   -1.3005929   0.28388475   -1.0167081 
   28300 -0.044506803 -0.0089197229 -0.062899327  0.077567663   0.81936231   -1.3729478   0.26336646   -1.1095814 
   28400 -0.040761908 -0.0043542248 -0.068866973  0.080144572   0.55581367   -1.3685399   0.17865439   -1.1898855 
   28500 -0.035396328  0.016905033 -0.067873543  0.078393227   0.35347007   -1.3453346   0.11361538   -1.2317192 
   28600 -0.029556456  0.031825064  -0.07013482  0.082494313    0.2421538   -1.3438285  0.077835151   -1.2659934 
   28700 -0.024102648  0.024112928 -0.071978384  0.079644577   0.36543258   -1.3591553   0.11746047   -1.2416948 
   28800  -0.01250258  0.033293346 -0.070877054  0.079298916   0.40530273   -1.3523709   0.13027588    -1.222095 
   28900 -0.0071545233  0.034690239 -0.068317634  0.076953876   0.43812613    -1.326196   0.14082626   -1.1853698 
   29000  0.010265769  0.026715126 -0.074053029  0.079391027   0.85612562   -1.3278716   0.27518324   -1.0526884 
   29100  0.026294665  0.018450207  -0.07263767  0.079423237    1.0531737   -1.3123236   0.33852013  -0.97380342 
   29200  0.028547493  0.023287193 -0.064263041  0.074074227   0.90157164   -1.3065736   0.28979089   -1.0167827 
   29300  0.025451425  0.020224386 -0.066568944  0.074082557   0.61121374   -1.3002226   0.19646156   -1.1037611 
   29400  0.033431797 0.00085634112 -0.065795313  0.073806786   0.40706231   -1.3367333   0.13084146   -1.2058918 
   29500  0.044279724 -0.0033405692 -0.059521361  0.074260661   0.23491253   -1.3291551  0.075507598   -1.2536475 
   29600  0.044614809 0.0064484526 -0.058904007  0.074173754   0.27833362   -1.2977818  0.089464379   -1.2083174 
   29700  0.033810793 -0.0081666017 -0.064558215    0.0733323   0.75247121   -1.3201501   0.24186575   -1.0782844 
   29800  0.025724567 -0.029534841 -0.071235219  0.081292784   0.91967839   -1.2958783   0.29561091   -1.0002674 
   29900  0.025952229 -0.023601201  -0.07005559  0.078347435   0.81199771   -1.2784202   0.26099926   -1.0174209 
   30000  0.039279582 -0.013381202 -0.063363444  0.075742116   0.59534071   -1.2871619   0.19135951   -1.0958023 
   30100  0.037415939 -0.028939751 -0.056960436  0.074040212   0.55499231   -1.3145199   0.17839039   -1.1361295 
   30200  0.020478504 -0.044078097  -0.05853529  0.076083034   0.34049509   -1.2714996   0.10944485   -1.1620548 
   30300 0.0079425104 -0.049918764 -0.060179063  0.078590623   0.33207455     -1.29051   0.10673825   -1.1837717 
   30400 0.0081278865  -0.04850994 -0.061733768   0.07893247    0.2589224   -1.2432718  0.083225056   -1.1600467 
   30500  0.018532556 -0.036014292 -0.062619376  0.074576613   0.32788451   -1.2243304   0.10539145    -1.118939 
   30600  0.017113131 -0.016287862 -0.074037532   0.07771557   0.48412345    -1.223371   0.15561111   -1.0677599 
   30700 0.0093856476 -0.011691466 -0.077712859  0.079145873    1.0071917    -1.335687   0.32374019   -1.0119468 
   30800  0.012875213 -0.025560456 -0.068539844  0.074275286   0.82656234   -1.2853702   0.26568075   -1.0196894 
   30900  0.011375337 -0.047708087 -0.059359785  0.077000285   0.67986739   -1.2464436    0.2185288   -1.0279148 
   31000 0.0001071343 -0.061601217 -0.049427228  0.078979569   0.71162144   -1.3112369   0.22873546   -1.0825015 
   31100 0.0089411725  -0.06277064 -0.047948404  0.079493064   0.32267629   -1.2373575   0.10371738   -1.1336401 
   31200  0.018526655 -0.059609271 -0.048936935  0.079317878   0.45707605   -1.3128417    0.1469173   -1.1659244 
   31300  0.034693113 -0.051304552 -0.048478749  0.078650863   0.55965971   -1.3688771   0.17989062   -1.1889865 
   31400   0.03502382 -0.040541547 -0.054819936  0.076651878   0.42242373   -1.3464669   0.13577905   -1.2106878 
   31500  0.041329412 -0.040097681 -0.057312164  0.081244252   0.41940784   -1.3709842   0.13480966   -1.2361746 
   31600  0.042017982 -0.043774035 -0.047251205  0.076904833   0.26715739    -1.315913  0.085872018    -1.230041 
   31700  0.049058563 -0.039032785 -0.050684205  0.080617551   0.22336746   -1.2738085  0.071796685   -1.2020118 
   31800  0.050535692 -0.045540623  -0.04351191  0.080753272   0.35891533   -1.3411618   0.11536564   -1.2257962 
   31900  0.053624264 -0.046470293  -0.03641796  0.079757869   0.42756787   -1.3511895   0.13743253    -1.213757 
   32000  0.061830691 -0.043587589 -0.031501671  0.081946736   0.39951364   -1.3125016    0.1284151   -1.1840865 
   32100  0.057881611 -0.049423167 -0.017763338  0.078156679   0.45313541   -1.2797125   0.14565067   -1.1340619 
   32200  0.066424849 -0.048007178 -0.017494528   0.08380339    0.7214269    -1.309774   0.23188722   -1.0778867 
   32300  0.055017309 -0.057044811 -0.015563906  0.080766638   0.91921557   -1.3317517   0.29546215   -1.0362896 
   32400  0.056527471  -0.05613062 -0.0086007799  0.080124745    1.3046757   -1.3461696   0.41936005  -0.92680951 
   32500  0.057945479 -0.049945647   0.02409437  0.080204644   0.88384768   -1.0726717    0.2840939  -0.78857779 
   32600  0.075614459 -0.026893781  0.036348735  0.088102511   0.90761373    -1.207759   0.29173299  -0.91602597 
   32700  0.059920866 -0.018021941  0.045572599  0.077409059   0.86032179   -1.3351136   0.27653201   -1.0585816 
   32800  0.054987918 -0.010192393  0.052853661   0.07694846   0.54759899   -1.3213308   0.17601396   -1.1453169 
   32900  0.055623917 -0.009152314   0.05451433  0.078419368   0.64874224   -1.3725239   0.20852429   -1.1639996 
   33000  0.038784327 0.0037945585  0.068546519  0.078849527   0.60138896   -1.3467358   0.19330359   -1.1534322 
   33100  0.025164762  0.022016656  0.079203243   0.08597181   0.44343771   -1.2574968   0.14253355   -1.1149632 
   33200  0.028315747  0.022350477  0.074013534  0.082336679   0.53218618   -1.2571634   0.17105984   -1.0861036 
   33300  0.012110926  0.028324777  0.068012229   0.07466345   0.76354072   -1.3001117    0.2454238   -1.0546878 
   33400 -0.0077183116  0.042802654  0.071933105  0.084059569    0.6694911   -1.2551343   0.21519357   -1.0399407 
   33500 -0.029115821  0.035396975  0.067836062  0.081868236   0.62046555   -1.1931331   0.19943536  -0.99369773 
   33600 -0.029164818  0.047003902   0.05533932  0.078245726   0.72131502   -1.2223079   0.23185126  -0.99045667 
   33700 -0.040829922  0.050833131  0.042804454  0.077995584   0.61620603   -1.1983433   0.19806622   -1.0002771 
   33800 -0.041287299  0.051383757  0.037755075  0.075962999   0.82884019   -1.3234539   0.26641292    -1.057041 
   33900 -0.063368623  0.060586589  0.026270816  0.091523073   0.39604043   -1.1896641   0.12729871   -1.0623654 
   34000 -0.054869527  0.049305187  0.027672291  0.078787195   0.54141839    -1.224718   0.17402734   -1.0506906 
   34100 -0.074674655  0.035065412  0.021679696  0.085298865    1.0441718   -1.2804499   0.33562665   -0.9448233 
   34200  -0.07403281  0.024032676   0.01531055  0.079327419    1.1243486   -1.3326995   0.36139775  -0.97130174 
   34300 -0.082961336  0.010448126 0.0051564622  0.083775508   0.69483902   -1.2389377   0.22334111   -1.0155966 
   34400 -0.082447583 0.0073173588 -0.0021608962  0.082799862   0.38380481   -1.1933732   0.12336583   -1.0700074 
   34500 -0.080935147 -0.007078843 -0.015332013  0.082678163   0.58305364   -1.3296367    0.1874101   -1.1422266 
   34600 -0.071850308 -0.0052720311 -0.023774028  0.075864784   0.40118854   -1.2428763   0.12895346   -1.1139229 
   34700 -0.070289861 -0.018554365 -0.028002281  0.077904151   0.46236618   -1.2251895    0.1486177   -1.0765718 
   34800  -0.06136081 -0.011193958 -0.037679871    0.0728713    1.0588043    -1.298925   0.34032997  -0.95859501 
   34900 -0.053340857 0.0029770584 -0.062362984  0.082117304   0.62593201   -1.1556039   0.20119243  -0.95441149 
   35000 -0.038573615 -0.0030179956 -0.068156584  0.078373159   0.75988726   -1.2758203   0.24424948   -1.0315709 
   35100 -0.027834561 -0.0012964413 -0.076416574  0.081338406   0.36222755    -1.246224   0.11643028   -1.1297938 
   35200 -0.0092347734 -0.0011408582 -0.079242484  0.079786928   0.63434863   -1.3922181   0.20389778   -1.1883203 
   35300 -0.0053508359 -0.0024818553 -0.075198921  0.075429893   0.49327455   -1.3502068   0.15855254   -1.1916543 
   35400 -0.0025036266 -0.0055375675 -0.080114302  0.080344472   0.49462717   -1.3474066    0.1589873   -1.1884193 
   35500   0.01345745 -0.0092776087 -0.081779345  0.083396872   0.36867932   -1.2975959   0.11850407   -1.1790918 
   35600  0.005585288  -0.01518135 -0.077451343  0.079122559   0.48585754   -1.2925978   0.15616849   -1.1364293 
   35700 -0.0016993065 -0.031083207 -0.071824897  0.078280708   0.74742057   -1.3391901   0.24024233   -1.0989478 
   35800 0.0066851176  -0.03428918   -0.0676808  0.076165145   0.83177405   -1.3482889   0.26735594   -1.0809329 
   35900  0.015893305 -0.031186453 -0.076878921  0.084472247   0.80014754    -1.318835   0.25719028   -1.0616448 
   36000  0.026401693 -0.041823463 -0.066399555  0.082795848    0.5925906   -1.3104782   0.19047555   -1.1200027 
   36100  0.039852167 -0.033676067 -0.058536551  0.078414288    0.4839508   -1.2962454   0.15555561   -1.1406898 
   36200   0.04957186 -0.033649755 -0.052600934  0.079727872   0.80817757    -1.404613   0.25977136   -1.1448416 
   36300  0.059287628 -0.023594852 -0.046158364  0.078754901   0.69616632   -1.3578902   0.22376775   -1.1341225 
   36400  0.064908539  -0.01222802 -0.046199339  0.080604106   0.79155621   -1.3803643   0.25442878   -1.1259355 
   36500  0.072755652 0.0012886423 -0.032777725  0.079808676   0.68760567   -1.3604516   0.22101611   -1.1394355 
   36600  0.075606319  0.012540063 -0.033369199  0.083588709   0.40919536   -1.3103913   0.13152708   -1.1788642 
   36700  0.076604443  0.022475969 -0.019538027  0.082189686   0.30914981     -1.29859  0.099369582   -1.1992204 
   36800  0.072475501  0.030199648 -0.015133063  0.079960781   0.54662159   -1.3468759    0.1756998   -1.1711762 
   36900  0.067297559  0.037924167 -0.0045722365  0.077382874   0.51906181   -1.2584249    0.1668413   -1.0915836 
   37000  0.062578967  0.047719214  0.012977079  0.079759984    0.7835664    -1.281586   0.25186063   -1.0297254 
   37100   0.04893316  0.062840797  0.015857172  0.081208804   0.71994778   -1.2703139   0.23141179   -1.0389021 
   37200  0.038420824  0.060126148  0.034600931  0.079300302   0.58732153   -1.3065735   0.18878192   -1.1177916 
   37300   0.01763167  0.049042166  0.062356498  0.081267107   0.45731119    -1.248411   0.14699288   -1.1014181 
   37400 0.0063867944  0.046719396  0.062598131  0.078371035   0.76367797   -1.3223682   0.24546792   -1.0769003 
   37500 -0.0062417053  0.039549474  0.069291593  0.080027774   0.70460559   -1.3177442   0.22648037   -1.0912638 
   37600 -0.031070327  0.020970346  0.073212364  0.082250659   0.55962882   -1.2605735   0.17988069   -1.0806928 
   37700 -0.056632483 0.0054656475  0.059739925  0.082498303    0.7443762   -1.2941519   0.23926378   -1.0548881 
   37800 -0.066461681 0.0047842446  0.040658585  0.078058725   0.75265212   -1.3124267    0.2419239   -1.0705028 
   37900 -0.066826888 -0.0029058693  0.036601512  0.076249247   0.49433165   -1.2751214   0.15889232    -1.116229 
   38000 -0.064423247 -0.018683222  0.034771538  0.075554466   0.38290343   -1.2683869    0.1230761   -1.1453108 
   38100 -0.057252031 -0.026684105  0.036232313  0.072819071   0.54077694   -1.3252891   0.17382116   -1.1514679 
   38200 -0.058509317 -0.024124533  0.045522765  0.077959319   0.20280944   -1.2323892   0.06518875   -1.1672004 
   38300 -0.061017544 -0.033469079  0.032745437  0.076912831   0.39280261   -1.2632525   0.12625798   -1.1369945 
   38400 -0.057428432 -0.045664871  0.011305216  0.074236872    0.8019421   -1.3274379    0.2577671   -1.0696708 
   38500 -0.050335459  -0.06037993 -0.016100915  0.080241098   0.87944553   -1.2674819   0.28267892    -0.984803 
   38600 -0.050806998 -0.058687679 -0.013356254  0.078765375   0.59921806   -1.2513336    0.1926058   -1.0587277 
   38700 -0.045442741 -0.061663061 -0.013435355  0.077768147   0.59998513   -1.2482931   0.19285236   -1.0554407 
   38800 -0.029551303 -0.065083019 -0.011572433  0.072408563    1.0144027   -1.3520833   0.32605801   -1.0260253 
   38900 -0.0091892655 -0.080647324 -0.0067746572  0.081451393    0.4812265    -1.224755   0.15467995   -1.0700751 
   39000 -0.00035054911 -0.073964024 -0.023360889  0.077566299   0.72881053   -1.3989403   0.23426053   -1.1646797 
   39100 -0.0018235889 -0.067652129 -0.039902847  0.078564453    0.2755262    -1.330963  0.088561994    -1.242401 
   39200 -0.00087590982 -0.065096992 -0.052081341  0.083371767   0.13944545    -1.299123  0.044821751   -1.2543013 
   39300 0.0049484449 -0.065912389  -0.03968224  0.077094814   0.37986696   -1.3572999   0.12210009   -1.2351999 
   39400  0.013016799 -0.067697002 -0.039339344  0.079371942   0.17382015   -1.2862643  0.055870761   -1.2303935 
   39500     0.014756  -0.06435949 -0.041190465  0.077823762   0.46162046   -1.3490662   0.14837801   -1.2006882 
   39600   0.01633891  -0.05816356  -0.05840564  0.084030818   0.39507112   -1.2597149   0.12698714   -1.1327277 
   39700  0.029882025 -0.057916448 -0.048220966   0.08107103   0.72916424   -1.2820249   0.23437422   -1.0476506 
   39800  0.045212304  -0.04909283 -0.048428602  0.082459614   0.73190515   -1.2245681   0.23525523  -0.98931289 
   39900  0.058078662 -0.040892945 -0.038118518  0.080612563   0.67514256   -1.1763867   0.21701011   -0.9593766 
   40000   0.04740403 -0.040069983 -0.041451861  0.074639148   0.58746455   -1.2014382   0.18882789   -1.0126103 
   40100  0.040248719 -0.037008096 -0.049809136  0.073962887   0.60334783   -1.2798628   0.19393323   -1.0859295 
   40200  0.031099973   -0.0276584  -0.06304678  0.075545297   0.46914272   -1.2704988   0.15079587   -1.1197029 
   40300  0.037388055 -0.0096612992  -0.06473087  0.075374352   0.59466001    -1.289016   0.19114072   -1.0978753 
   40400  0.052372554 0.00012757721 -0.061308159  0.080632444   0.65979644   -1.2062179   0.21207743  -0.99414043 
   40500  0.066441327 0.0044890304 -0.053456297  0.085394245   0.87734367   -1.2272871   0.28200332  -0.94528376 
   40600  0.065251649 0.0096721495 -0.056372046  0.086770592    0.7618795   -1.2252189   0.24488984  -0.98032908 
   40700  0.055254204  0.011972007  -0.05846182  0.081327366   0.61021307   -1.2755389   0.19613991    -1.079399 
   40800  0.055417269  0.024562151 -0.052962969  0.080495025   0.44305493   -1.3106923   0.14241051   -1.1682818 
   40900   0.05426891  0.021027264 -0.050585962  0.077111607   0.30259263   -1.3418488  0.097261916   -1.2445869 
   41000  0.060373578  0.021485038 -0.046423951  0.079131277   0.57151438   -1.3996112   0.18370105   -1.2159101 
   41100  0.063964553  0.021844317 -0.041756274   0.07944951   0.52353503    -1.372286   0.16827912   -1.2040069 
   41200  0.071952537  0.014679909 -0.031947069  0.080082973   0.47083899   -1.3670341    0.1513411    -1.215693 
   41300  0.072130115  0.021235624 -0.025173542  0.079293205     0.375963    -1.336097   0.12084525   -1.2152517 
   41400  0.076041355   0.01166947 -0.015395715  0.078456945   0.52036186   -1.3900129   0.16725917   -1.2227537 
   41500  0.076528909  0.014149558 -0.0074512859  0.078181875   0.58592411   -1.3975989   0.18833275   -1.2092661 
   41600  0.076629825  0.014597531 -0.0030905277  0.078069004   0.50589868    -1.298407   0.16261029   -1.1357967 
   41700  0.073361893 0.0017625328 0.0020982617  0.073413054   0.84476313   -1.3362533   0.27153101   -1.0647223 
   41800  0.075712971 -0.009279189  0.013019696  0.077382619   0.57179874   -1.2202728   0.18379245   -1.0364803 
   41900  0.075859262 -0.018480426  0.023308027  0.081482624   0.82356097   -1.3133734   0.26471603   -1.0486574 
   42000    0.0712648 -0.019417294   0.03427017  0.081425718   0.53265822    -1.319152   0.17121157   -1.1479404 
   42100  0.059969478 -0.015346916  0.045906214  0.077066508   0.52925167   -1.3682169   0.17011661   -1.1981003 
   42200  0.055718537 -0.021724346  0.054719356  0.081059919   0.48589263   -1.4008901   0.15617977   -1.2447103 
   42300  0.045743389 -0.019235251  0.060395153  0.078166662   0.34562189   -1.3948785   0.11109275   -1.2837857 
   42400  0.040423219 -0.020773661  0.063906997  0.078419933   0.27250552   -1.3881895  0.087591061   -1.3005985 
   42500  0.037472687 -0.020053483  0.066838796  0.079207128   0.38330492   -1.4122513   0.12320515   -1.2890461 
   42600  0.034947653 -0.019435919  0.066965092  0.077996262   0.48646756    -1.413451   0.15636457   -1.2570865 
   42700  0.044265114 -0.020865578  0.063700934  0.080327963   0.36686921   -1.3379983   0.11792225    -1.220076 
   42800   0.04646088 -0.016258743  0.060682222  0.078136369   0.45082827   -1.3510672   0.14490909   -1.2061581 
   42900  0.058786376 -0.017392917  0.054763646  0.082203458   0.45456871   -1.3356697   0.14611137   -1.1895584 
   43000  0.066459662 -0.014192596  0.045714877  0.081903396   0.46805134   -1.3183343   0.15044507   -1.1678893 
   43100  0.069227188 -0.012924737  0.034850352  0.078574801   0.60623031    -1.322324   0.19485974   -1.1274642 
   43200  0.074629381 -0.00072268339  0.019343642  0.077098919   0.66684655   -1.2711794   0.21434353   -1.0568359 
   43300  0.081555593 0.0026731531 0.0086113001  0.082052514   0.88482552   -1.3119489    0.2844082   -1.0275407 
   43400  0.076656627  0.012340892  0.002240639  0.077675972   0.78804715   -1.2991326   0.25330087   -1.0458317 
   43500  0.069496572  0.033783945 -0.012960148   0.07835237   0.46242236   -1.2439629   0.14863576   -1.0953271 
   43600  0.058980598  0.046257034 -0.017391992  0.076947421   0.37896636   -1.2434909   0.12181062   -1.1216803 
   43700  0.048075795  0.053744548 -0.022214431  0.075453558   0.65712519   -1.3213538   0.21121881    -1.110135 
   43800  0.042902126  0.063608448  -0.01168257  0.077608695   0.60329177   -1.2603005   0.19391521   -1.0663853 
   43900    0.0429972   0.06639737 -0.010521423  0.079800189   0.77896213   -1.3480661   0.25038069   -1.0976854 
   44000  0.026446956  0.067045383 -0.026976571  0.076956223   0.46148899   -1.2747719   0.14833575   -1.1264361 
   44100  0.019614225   0.07078319 -0.030631673   0.07958189    0.4125384   -1.2832098   0.13260163   -1.1506081 
   44200  0.019883038  0.072525646 -0.033875561  0.082479441   0.28231385    -1.270601  0.090743738   -1.1798572 
   44300  0.007618949  0.067131417 -0.041315959  0.079193965   0.40440329   -1.3023983   0.12998677   -1.1724115 
   44400 -0.0061570099  0.070785411 -0.044606603  0.083894173   0.17289279   -1.1936701  0.055572684   -1.1380974 
   44500 -0.0018648647  0.062018785 -0.047014948  0.077847368   0.69762623   -1.3215244     0.224237   -1.0972874 
   44600 -0.0078873505  0.057104595 -0.050778979  0.076822195   0.82681306   -1.3418134   0.26576134    -1.076052 
   44700  -0.02670739  0.054861673 -0.049366437  0.078486514   0.95836235   -1.3569783   0.30804504   -1.0489332 
   44800 -0.034227371  0.049684345 -0.051887668  0.079576235   0.93776501   -1.3293468   0.30142447   -1.0279224 
   44900 -0.028168458  0.026320541 -0.068609207  0.078698515   0.71987812   -1.2375875    0.2313894   -1.0061981 
   45000 -0.025088539  0.022089731 -0.081091393  0.087710917   0.45612646   -1.1718456   0.14661208   -1.0252335 
   45100 -0.043495765  0.017899568 -0.065412795  0.080567424   0.73138743   -1.2918591   0.23508882   -1.0567703 
   45200 -0.060210378 0.0062455531 -0.053259188  0.080627773   0.35017544   -1.2651662   0.11255639   -1.1526098 
   45300 -0.055640621 -0.0084213486 -0.054180614  0.078117455    0.3392344   -1.3144118   0.10903963   -1.2053722 
   45400 -0.054968964 -0.020525698  -0.04943375  0.076724096   0.36446697   -1.3058839    0.1171501   -1.1887338 
   45500 -0.059145219 -0.038836338  -0.04255627  0.082567876   0.53395688   -1.3354564     0.171629   -1.1638274 
   45600 -0.054579544 -0.035318434 -0.049812152  0.081899749   0.49666238     -1.29455   0.15964148   -1.1349085 
   45700 -0.049044548 -0.031983358 -0.057566858  0.082111181   0.71656115   -1.2881522   0.23032323    -1.057829 
   45800 -0.039639558 -0.043777578 -0.047882711  0.076029763    1.0121987   -1.3699358   0.32534957   -1.0445862 
   45900 -0.041327826 -0.052628452 -0.050183397  0.083642792   0.74540367   -1.3228958   0.23959404   -1.0833018 
   46000 -0.013772357 -0.049837947 -0.061385128  0.080259783   0.91749055   -1.3904892   0.29490768   -1.0955815 
   46100 -0.012076413 -0.047767292 -0.061215228  0.078580265   0.83948474   -1.3937677   0.26983438   -1.1239333 
   46200 -0.010098286 -0.044264779 -0.064880749  0.079188746   0.70830452   -1.3516904   0.22766931   -1.1240211 
   46300 0.0028852509 -0.039086711  -0.06875624  0.079142379   0.85820395    -1.369648   0.27585127   -1.0937967 
   46400 0.00049309006 -0.030055461  -0.07503975  0.080836489   0.81901493   -1.2546281    0.2632548   -0.9913733 
   46500 -0.0016785548 -0.028934543  -0.07261451  0.078184988    1.1939669   -1.2913506   0.38377508  -0.90757548 
   46600 -0.0032791865 -0.0090142661  -0.08037946  0.080949785    1.2660443   -1.3555511    0.4069428   -0.9486083 
   46700 0.0055963637  0.011654398 -0.078764041  0.079818033   0.64852173   -1.3663522   0.20845341   -1.1578988 
   46800 0.0082968522  0.027245209 -0.075605455  0.080791856   0.30891617   -1.3025964  0.099294483   -1.2033019 
   46900  0.014779868  0.039842801 -0.068259981  0.080407202   0.61211691   -1.3747921   0.19675186   -1.1780403 
   47000 0.0017598241  0.046106432 -0.062586574  0.077755896   0.23817402   -1.2410232  0.076555936   -1.1644673 
   47100 -0.0022402362  0.054764752 -0.056023358  0.078376102   0.41151203    -1.282876   0.13227172   -1.1506043 
   47200 -0.0073844334  0.060116524  -0.04845905  0.077568072   0.46284457   -1.2608337   0.14877147   -1.1120622 
   47300 -0.025650531   0.06328143 -0.037294835  0.077803559     1.177782   -1.3252263   0.37857279  -0.94665348 
   47400 -0.019086186  0.068460808 -0.035037058  0.079238628    1.3570215   -1.3341735   0.43618548  -0.89798801 
   47500 -0.023334688   0.06817425 -0.035260457  0.080221791    1.1693345   -1.3856995   0.37585753    -1.009842 
   47600 -0.029727235  0.070393812 -0.020640042  0.079151807   0.34835219   -1.3102404   0.11197035     -1.19827 
   47700 -0.028559777  0.069067058 -0.025996459  0.079131127   0.37417412   -1.3891736   0.12027025   -1.2689033 
   47800 -0.034092287  0.069531961 -0.018777147  0.079684119   0.30949702   -1.3925098  0.099481187   -1.2930286 
   47900 -0.036836658  0.069547313 -0.013061138  0.079776947   0.22580172   -1.3706059  0.072579126   -1.2980267 
   48000 -0.038098242  0.067335013 -0.012689416  0.078399626   0.36286086   -1.3733734   0.11663385   -1.2567396 
   48100 -0.043664781  0.064238129 0.00080277078  0.077677505   0.50116403   -1.3447223   0.16108844   -1.1836339 
   48200 -0.050667619   0.06793122 0.0047785505  0.084880462   0.61765216    -1.238948   0.19853105   -1.0404169 
   48300 -0.061373395   0.04462301 0.0053479238  0.076069093    1.4405217   -1.2967091   0.46302482  -0.83368428 
   48400 -0.078096946  0.029939953  0.001415234   0.08365128   0.81898301   -1.1755458   0.26324454  -0.91230129 
   48500 -0.076661672  0.014020287 0.0042267616  0.078047716   0.95808498   -1.3149157   0.30795589   -1.0069598 
   48600  -0.08248942  0.013476969 -0.001478486  0.083596166   0.68350668   -1.2758798   0.21969857   -1.0561813 
   48700 -0.079084139 0.0047317403 5.0293222e-06  0.079225567   0.75863517   -1.3371068   0.24384702   -1.0932597 
   48800 -0.077482946 -0.0040646104 -0.0030727476  0.077650304   0.55541045   -1.2783447   0.17852479     -1.09982 
   48900 -0.083673642 -0.0016028663 -0.011924282   0.08453423   0.63233623   -1.3088544   0.20325093   -1.1056034 
   49000 -0.077374542 -0.017242332 -0.010318863  0.079941208    0.4895012     -1.28528   0.15733967   -1.1279403 
   49100 -0.074530998 -0.024235676 -0.019908312  0.080861477     0.393715   -1.2843222   0.12655125   -1.1577709 
   49200 -0.068458147 -0.029391768 -0.031377929  0.080839151   0.42220925   -1.3437953   0.13571012   -1.2080852 
   49300 -0.058886042  -0.04182339 -0.032296319  0.079118987   0.31601971   -1.3452288   0.10157776    -1.243651 
   49400 -0.056988387 -0.034000549 -0.042902698  0.079021232   0.31463505   -1.3715483   0.10113269   -1.2704156 
   49500 -0.052465002 -0.036627236 -0.043350296  0.077287638   0.34802368   -1.3798584   0.11186475   -1.2679937 
   49600 -0.052745144 -0.042402789 -0.038506775  0.077864103   0.35108976   -1.3535649   0.11285028   -1.2407146 
   49700 -0.055090084 -0.045731818 -0.040985944  0.082499479   0.35701085   -1.3152957   0.11475349   -1.2005423 
   49800 -0.039879346 -0.044181699 -0.053527516  0.080047359   0.76235759   -1.3618976   0.24504351   -1.1168541 
   49900  -0.04187928 -0.040450328  -0.05576496  0.080621547   0.63315557   -1.1688157   0.20351429  -0.96530145 
   50000  -0.04021293 -0.018883555 -0.067150869  0.080516505    1.2473366   -1.3250961   0.40092962  -0.92416645 
   50100 -0.023361258 -0.0077917822 -0.077422288  0.081244514    1.2361723   -1.3066952   0.39734108  -0.90935407 
   50200 0.0084314367  0.018811165 -0.079559834  0.082187081   0.87253989   -1.2717472   0.28045925  -0.99128791 
   50300  0.040450684  0.015975978 -0.065781023  0.078858308   0.62366559   -1.3418474   0.20046394   -1.1413834 
   50400   0.06172661  0.013340934 -0.055708534  0.084211613   0.17897035   -1.2880128  0.057526184   -1.2304866 
   50500  0.057559055   0.02818978 -0.051652638  0.082314662   0.28069404   -1.3307227  0.090223084   -1.2404996 
   50600  0.056793409  0.025010307 -0.045349951  0.076861075   0.30578014   -1.2882621  0.098286475   -1.1899756 
   50700  0.074811221  0.030939475 -0.025253887   0.08480406    0.3555315   -1.2853383   0.11427798   -1.1710603 
   50800  0.066930747   0.03566783 -0.019003261  0.078185951   0.70835075   -1.3355871   0.22768417   -1.1079029 
   50900  0.063969791  0.037111167 -0.009984859  0.074626203   0.68235334   -1.2956914   0.21932786   -1.0763635 
   51000  0.065738199  0.035788363 -0.0003091105   0.07484927   0.42390822   -1.2229376   0.13625621   -1.0866814 
   51100  0.069093797  0.031090351  0.011939504  0.076701463   0.47031968   -1.2439129   0.15117418   -1.0927387 
   51200  0.066409056  0.022275358  0.030311258  0.076322518   0.53754367   -1.2545977   0.17278189   -1.0818158 
   51300   0.04799159  0.030131214   0.04152403  0.070251889   0.72127465   -1.3254473   0.23183828   -1.0936091 
   51400   0.04072398  0.040567427  0.046461012  0.073910651   0.48547234   -1.2911049   0.15604468   -1.1350602 
   51500   0.04011329  0.030005682  0.052722657  0.072726169   0.50105111   -1.3614822   0.16105214   -1.2004301 
   51600  0.031073952  0.029620364  0.061675953  0.075145723   0.31955354   -1.3316182   0.10271364   -1.2289045 
   51700  0.021781339  0.043222424  0.057469796  0.075135758   0.48490902   -1.3254524   0.15586361   -1.1695888 
   51800  0.019949266  0.046970727  0.054741226  0.074838654   0.65134237   -1.3168126   0.20936005   -1.1074525 
   51900 0.0069879149  0.043268219  0.057286115  0.072129528   0.68567898   -1.2785403   0.22039681   -1.0581435 
   52000  -0.01977333  0.042829731   0.05458242   0.07214299   0.84321013   -1.3111797   0.27103183   -1.0401479 
   52100 -0.037115943   0.04569578  0.044511885  0.073803831   0.41858102    -1.247598    0.1345439   -1.1130541 
   52200 -0.042197509   0.04409688  0.043129355  0.074734904   0.52478918   -1.2696139   0.16868224   -1.1009316 
   52300 -0.047423446   0.04305183  0.050763855  0.081727671   0.43968483   -1.2024658   0.14132727   -1.0611386 
   52400  -0.05973394  0.024118444  0.042714792  0.077294219   0.77663805   -1.2503251   0.24963366   -1.0006914 
   52500 -0.061044725  0.012997605  0.048435584  0.079002544   0.93512918   -1.2869148   0.30057723  -0.98633754 
   52600  -0.07173472 0.0039694152  0.035335699  0.080063961    1.0906042   -1.3901204   0.35055136   -1.0395691 
   52700  -0.07639508 -0.011158768  0.020211617  0.079807492   0.61040801   -1.3256054   0.19620257   -1.1294028 
   52800 -0.079804436  -0.02043756 0.0068974685  0.082668113   0.33638615   -1.3099714   0.10812412   -1.2018473 
   52900 -0.071781846  -0.03193385 -0.0036032549  0.078647236    0.2689611   -1.3439869  0.086451781   -1.2575352 
   53000 -0.068693219 -0.035063783 -0.0053679789  0.077311334   0.17454456   -1.3360807  0.056103608   -1.2799771 
   53100 -0.067658137 -0.039899013 -0.0091390399  0.079076399   0.24005823   -1.3808882  0.077161572   -1.3037266 
   53200 -0.063002534 -0.047062864 -0.014753643   0.08001189   0.23150687   -1.3775294  0.074412922   -1.3031165 
   53300 -0.060972767  -0.05040808 -0.0091432669  0.079638258   0.28476068   -1.3673323  0.091530218   -1.2758021 
   53400 -0.053350071 -0.053779158  -0.01112543  0.076565025   0.40928739   -1.3373339   0.13155666   -1.2057772 
   53500 -0.045243354 -0.060160115 -0.022069784  0.078442819   0.86396918   -1.3865264   0.27770438   -1.1088221 
   53600 -0.039341518 -0.068311867 -0.012430006  0.079804582   0.63386373   -1.2808062   0.20374191   -1.0770643 
   53700 -0.021428956 -0.072833921 -0.010247426  0.076609334   0.89329782   -1.3645776   0.28713144   -1.0774462 
   53800 -0.0067102048 -0.078809428 -0.017252282  0.080954272   0.67620266   -1.3145187   0.21735085   -1.0971679 
   53900 -0.0034077323 -0.072584595 -0.028710511  0.078130849   0.92506155   -1.3705844   0.29734121   -1.0732432 
   54000 0.0084943945 -0.063864531 -0.042942623  0.077426752   0.66773921   -1.3393469   0.21463046   -1.1247165 
   54100  0.030754174 -0.063113388 -0.036785683  0.079260995   0.59676085   -1.2996354   0.19181599   -1.1078194 
   54200  0.044524532 -0.045993005 -0.042732537  0.076966618   0.78235355   -1.3520121   0.25147078   -1.1005413 
   54300  0.057363334 -0.035651646 -0.048208312  0.082979716   0.44632679   -1.2572295   0.14346218   -1.1137673 
   54400  0.068193756 -0.035344132 -0.037705845  0.085564752   0.41567319   -1.2613605   0.13360924   -1.1277513 
   54500  0.074622634 -0.012792749 -0.025402998  0.079859277   0.53442553   -1.2966496   0.17177963     -1.12487 
   54600  0.079629495  0.013077358 -0.013571469  0.081829448   0.75682977   -1.3495503   0.24326671   -1.1062836 
   54700   0.07053032  0.019934109  0.016023807  0.075024377   0.55899115   -1.2436795   0.17967573   -1.0640038 
   54800  0.060693651   0.03761181  0.044750695  0.084267385   0.61519334   -1.2829152   0.19774072   -1.0851745 
   54900  0.054042905  0.029782302  0.053598868  0.081734079   0.43995374   -1.2730954    0.1414137   -1.1316817 
   55000  0.042246965  0.036859922  0.063739833  0.084889494   0.38696989   -1.3066254   0.12438318   -1.1822422 
   55100  0.023390289  0.020034674  0.069569907  0.076081967   0.35920415   -1.3390085   0.11545848     -1.22355 
   55200 0.0038919596 0.0055258001  0.080161552  0.080445984   0.39081217   -1.3957713    0.1256182   -1.2701531 
   55300 0.0052065362 -0.0056629783  0.078007516  0.078385904   0.14345224   -1.3472834  0.046109649   -1.3011737 
   55400 0.0024304181 -0.017469476  0.076906585  0.078903183   0.31958379   -1.4125268   0.10272336   -1.3098034 
   55500 0.00055772536 -0.020853613  0.073327083  0.076236772   0.21539515   -1.3667072  0.069234156   -1.2974731 
   55600 -0.016686184 -0.025899387  0.073104224   0.07933117   0.43655103   -1.3966728   0.14031998   -1.2563528 
   55700 -0.019373164 -0.033376423  0.073248721  0.082792996   0.63020179   -1.3200857   0.20256486   -1.1175208 
   55800 -0.042733457 -0.039943029  0.053237754  0.079093946    1.0730221   -1.3453054   0.34489997   -1.0004055 
   55900 -0.066999931 -0.045138986  0.026289054  0.084956655   0.78701122   -1.2518287   0.25296789  -0.99886076 
   56000 -0.066600296 -0.045288923  0.012537186  0.081509919   0.73045343   -1.3372243    0.2347886   -1.1024357 
   56100 -0.061721906 -0.048692842 -0.0053313856  0.078797273   0.73269215   -1.3892396   0.23550819   -1.1537314 
   56200 -0.048870696 -0.053865152 -0.017017686  0.074695389   0.37881467   -1.3065107   0.12176186   -1.1847488 
   56300 -0.047320388 -0.058905087 -0.028697115  0.080824209   0.60272012   -1.4080881   0.19373147   -1.2143567 
   56400 -0.034874732 -0.061264936  -0.03871518  0.080427013   0.39067066   -1.3646289   0.12557271   -1.2390561 
   56500 -0.025985523 -0.058012378 -0.044102195  0.077367221   0.43531361   -1.3853423   0.13992223   -1.2454201 
   56600 -0.012474277  -0.05943073 -0.047413456  0.077043203   0.30805428   -1.3575852  0.099017448   -1.2585678 
   56700 -0.0024514424 -0.056826156 -0.058111391  0.081315161   0.41388509   -1.3898939   0.13303449   -1.2568594 
   56800  0.010779783 -0.054420632 -0.054567123  0.077816322   0.35791569   -1.3574457   0.11504433   -1.2424014 
   56900  0.023699608 -0.047539953  -0.06561806  0.084424217    0.3042263    -1.326073  0.097787026   -1.2282859 
   57000  0.035176051 -0.043250721 -0.056005704  0.079022897      0.53421   -1.3275328   0.17171036   -1.1558224 
   57100  0.050571749 -0.034115256 -0.053416566  0.081084413    0.6706323   -1.3011916   0.21556038   -1.0856313 
   57200  0.072496021 -0.018371599 -0.042482034  0.086011115   0.73428177   -1.2355797   0.23601914  -0.99956051 
   57300  0.073938855 -0.0084753999 -0.021740032   0.07753332   0.96244211   -1.3040943   0.30935639  -0.99473791 
   57400  0.076801096 0.0013066401 -0.0013571958    0.0768242   0.66399817    -1.315439   0.21342798    -1.102011 
   57500  0.074433934  0.017410479  0.019842735  0.078976385   0.66113365   -1.3529586   0.21250725   -1.1404514 
   57600    0.0711641   0.01764826  0.028451459  0.078646524   0.62991259   -1.3730777    0.2024719   -1.1706058 
   57700  0.070300549   0.02396217  0.035391602  0.082273436   0.52305194   -1.3437081   0.16812384   -1.1755843 
   57800  0.054731297  0.031182931  0.047160433  0.078689241   0.55696228   -1.3853418   0.17902359   -1.2063182 
   57900    0.0543896  0.029414212  0.045898126  0.077006899   0.42919294   -1.3423444   0.13795487   -1.2043895 
   58000  0.045872294  0.032300335  0.056496154  0.079620314   0.41059333   -1.3378362   0.13197643   -1.2058598 
   58100  0.028688577  0.045758909  0.062530537  0.082625543   0.58639272   -1.3783298   0.18848337   -1.1898465 
   58200  0.019326958   0.03907677  0.063800101  0.077272104   0.70974818   -1.3245262   0.22813334   -1.0963929 
   58300  0.010644671  0.037873107  0.066778402  0.077505072   0.72512449   -1.2999145   0.23307573   -1.0668388 
   58400 -0.002374776  0.026159699  0.075419807  0.079863112   0.81995162   -1.3621902   0.26355588   -1.0986343 
   58500 -0.022295477  0.031734471  0.073004466  0.082666904   0.53479787   -1.3156119   0.17189931   -1.1437126 
   58600 -0.027878609  0.015118919  0.070268107  0.077093485   0.67496043   -1.3911499   0.21695157   -1.1741983 
   58700 -0.039950467 0.0064184819   0.06516921  0.076708948   0.29764349   -1.3130646  0.095671122   -1.2173935 
   58800 -0.048495938 0.0015731809  0.061486449  0.078325694   0.55007106   -1.3822367   0.17680856   -1.2054281 
   58900 -0.053766254 -0.0052523509  0.061995815  0.082230641   0.24635882   -1.2654896  0.079186763   -1.1863028 
   59000 -0.057071232 -0.014891159  0.049646714   0.07709519   0.47597638   -1.3734891   0.15299241   -1.2204967 
   59100 -0.058591059 -0.021570624  0.046175331  0.077655426   0.40422921   -1.3375298   0.12993082    -1.207599 
   59200  -0.05651377 -0.033636547  0.047458652  0.081102079   0.42777296   -1.2749827   0.13749845   -1.1374843 
   59300 -0.057384424  -0.04525167  0.029154065  0.078680654   0.56262565   -1.3048664   0.18084396   -1.1240224 
   59400 -0.061666654 -0.055811014  0.005009425  0.083323106   0.55600461   -1.3104624   0.17871577   -1.1317467 
   59500 -0.048233501  -0.05858441 0.00095248892  0.075891442   0.77924722    -1.346927   0.25047232   -1.0964547 
   59600 -0.056030367 -0.064603232 -0.0072593901  0.085823531   0.53728148    -1.268307   0.17269762   -1.0956094 
   59700 -0.039146341 -0.070257604   -0.0145829  0.081738779   0.64131163   -1.3033332   0.20613588   -1.0971973 
   59800  -0.03692753 -0.069929677 -0.020515071  0.081698656   0.55856227   -1.2821618   0.17953787   -1.1026239 
   59900 -0.026761266 -0.071080977 -0.025224298  0.080030843   0.58513471   -1.2976247   0.18807901   -1.1095456 
   60000 -0.011837062 -0.074137757 -0.031374778  0.081368911   0.42279697   -1.2541473   0.13589903   -1.1182483 
   60100 0.0057860067 -0.074646781 -0.031663551  0.081290837   0.62534266   -1.2906136     0.201003   -1.0896106 
   60200  0.015292302 -0.070466628 -0.030657319  0.078353503   0.58072648   -1.2334532   0.18666208   -1.0467911 
   60300  0.026042961 -0.066925039 -0.039120201  0.081777667   0.55428684   -1.2374743   0.17816363   -1.0593106 
   60400  0.034244236 -0.072528385 -0.015322493  0.081656678   0.91954374   -1.3268191   0.29556763   -1.0312515 
   60500  0.035933841 -0.073703864 -0.0049868028  0.082148455   0.59014609   -1.2634748   0.18968981    -1.073785 
   60600  0.040607603 -0.066520274 -0.0036110164  0.078018996   0.49764587   -1.2808428    0.1599576   -1.1208852 
   60700  0.053188293 -0.060718624 0.0063105794   0.08096647   0.35954302   -1.2965691    0.1155674   -1.1810017 
   60800  0.044280881  -0.06389972 0.0076193384  0.078115459   0.40156372   -1.3270085   0.12907405   -1.1979344 
   60900  0.044605956 -0.060464571  0.012141515  0.076112233   0.20446057   -1.2672274   0.06571947   -1.2015079 
   61000  0.050501696 -0.053855765   0.02763526  0.078832559   0.51740064   -1.3484168   0.16630735   -1.1821095 
   61100  0.054220638 -0.044534304  0.030310421  0.076432346    0.3047357   -1.2537143   0.09795076   -1.1557636 
   61200  0.046962786  -0.04628023  0.047013363  0.080979128   0.82933293   -1.3338582    0.2665713   -1.0672869 
   61300  0.035148069 -0.057844321  0.045385046   0.08149328   0.75811813   -1.2440377   0.24368083   -1.0003569 
   61400  0.022829243 -0.072113596  0.039980963   0.08555713   0.79914794    -1.291203   0.25686898    -1.034334 
   61500   0.01565394 -0.058639509  0.048352414   0.07759893    0.5313362   -1.3220029   0.17078663   -1.1512162 
   61600 0.0041453115 -0.060394039  0.054538634  0.081480588   0.26502736   -1.3178139  0.085187365   -1.2326265 
   61700 -0.0023641491 -0.054632677  0.057653671  0.079462345   0.37399172   -1.3795836   0.12021162    -1.259372 
   61800 -0.0093816563 -0.046644891  0.063481002  0.079332206     0.311699   -1.3771061   0.10018896   -1.2769171 
   61900 -0.015093696 -0.052561596  0.054643519  0.077307537   0.27074485   -1.3605161  0.087025131   -1.2734909 
   62000 -0.019327998 -0.048187284  0.057625413  0.077564644   0.29518653   -1.3354533  0.094881384   -1.2405719 
   62100 -0.027505685 -0.052901867  0.054008912  0.080449567   0.60480119   -1.3810732   0.19440038   -1.1866728 
   62200  -0.02939531 -0.053865729  0.048731361  0.078360363   0.71733341   -1.3920971   0.23057145   -1.1615257 
   62300 -0.034543383 -0.052176259  0.045475156  0.077353715   0.52447489   -1.3135007   0.16858121   -1.1449195 
   62400 -0.039070729 -0.061408904  0.030270671  0.078828224   0.71314239   -1.3494856   0.22922434   -1.1202612 
   62500 -0.035394989 -0.067213264  0.021540118  0.078958247   0.71057113   -1.3388574   0.22839786   -1.1104596 
   62600  -0.04606809 -0.063665943  0.014437618  0.079900351   0.88689142   -1.3872623   0.28507224   -1.1021901 
   62700 -0.053831459 -0.055819583   0.02016703  0.080127155   0.81434501   -1.3933992   0.26175375   -1.1316454 
   62800 -0.051264861 -0.057035183  0.010257072  0.077371219   0.86917739   -1.4077378   0.27937845   -1.1283594 
   62900 -0.041507578 -0.066108521 -0.0063386768  0.078315991   0.71912745    -1.324501   0.23114811   -1.0933529 
   63000 -0.023263935  -0.07500899 -0.022397712  0.081665273    1.0265033   -1.3613546    0.3299475   -1.0314071 
   63100 -0.010161372 -0.074458819 -0.019472047  0.077630727    0.6244092   -1.2941154   0.20070296   -1.0934125 
   63200 0.0049748207  -0.07402378 -0.028489105  0.079472624   0.49071372   -1.3458162   0.15772941   -1.1880868 
   63300  0.014377284 -0.075433504 -0.018026811  0.078878931   0.52021267   -1.3924268   0.16721122   -1.2252156 
   63400  0.017595658 -0.077503472 -0.0099452415  0.080095588   0.37281704   -1.3201819   0.11983405   -1.2003479 
[...]
   86400 -0.0043571632 -0.076818717  0.024714416  0.080813999   0.45220044   -1.3352158   0.14535014   -1.1898657 
   86500 -0.012625604 -0.073854481   0.01979361  0.077496305   0.41506473   -1.3282624   0.13341366   -1.1948487 
   86600 -0.012882886 -0.071696427  0.022927789  0.076367728   0.55938044   -1.3500553   0.17980086   -1.1702545 
   86700 -0.0041404509 -0.076288948  0.026054294  0.080721578   0.44586724   -1.3298901   0.14331447   -1.1865757 
   86800 -0.0054003297 -0.075941583  0.021979354  0.079242536   0.49742018   -1.3602454   0.15988506   -1.2003603 
   86900 -0.014327681 -0.074172053  0.015445432  0.077106013   0.46841982   -1.3457538   0.15056351   -1.1951903 
   87000 -0.0066036249 -0.077298661 0.0082703402  0.078019801   0.67827835   -1.3593866   0.21801804   -1.1413685 
   87100 0.0070034589 -0.078778863  0.013921105  0.080305385   0.81020707   -1.4055189    0.2604237   -1.1450952 
   87200  0.019204115 -0.074954429 0.0061203114  0.077617155   0.60524279   -1.3719154   0.19454233   -1.1773731 
   87300  0.024769273 -0.077374191 0.0031764195  0.081304194   0.44935452   -1.3573301   0.14443538   -1.2128947 
   87400  0.035186986 -0.069318702  0.014572334  0.079092094   0.37421267   -1.3777039   0.12028264   -1.2574212 
   87500  0.039842604 -0.066077836 0.0069153089  0.077469574   0.31684098   -1.3867482   0.10184174   -1.2849065 
   87600  0.046319074 -0.060953049  0.011481222  0.077411557   0.36788122    -1.406403   0.11824754   -1.2881555 
   87700  0.052652428 -0.058031784  0.015155636  0.079810146   0.37157655   -1.4147592   0.11943532   -1.2953239 
   87800  0.059481913 -0.049993643  0.015507338  0.079233452   0.38517408   -1.3928999   0.12380595    -1.269094 
   87900  0.061216432 -0.049318258  0.022578973  0.081789682    0.4287283   -1.3481802   0.13780552   -1.2103747 
   88000  0.070230695 -0.030169589  0.021395716  0.079374626   0.53170535   -1.3542914   0.17090529   -1.1833861 
   88100  0.073498587  -0.01281226  0.023737572    0.0782922   0.79072398    -1.398699   0.25416128   -1.1445377 
   88200  0.073917083 0.0052042723  0.031293346  0.080436889   0.75777544   -1.3814629   0.24357068   -1.1378922 
   88300  0.068982783 0.0033222029   0.03726665  0.078475885   0.62804121   -1.3512356   0.20187039   -1.1493653 
   88400  0.060334303  0.016925464   0.04773641   0.07877477   0.67681733   -1.3897163   0.21754843   -1.1721679 
   88500  0.057460907  0.017687526  0.055565716   0.08186668   0.60264418    -1.363222   0.19370706    -1.169515 
   88600  0.044591654  0.020443576  0.062621049  0.079547163   0.65686324   -1.3825282   0.21113461   -1.1713936 
   88700  0.038660449  0.022379869   0.06488367  0.078774231   0.74293522   -1.3833782   0.23880061   -1.1445776 
   88800  0.045514978  0.012808729  0.060931504  0.077125385   0.59934639   -1.3440141   0.19264705   -1.1513671 
   88900  0.051613607 0.0047338102  0.058415275  0.078094288    0.6976018   -1.3773061   0.22422915   -1.1530769 
   89000  0.056569981 -0.0058495068  0.056207095  0.079960096   0.66209678   -1.3494938   0.21281682    -1.136677 
   89100  0.056819691   0.00141488  0.056757339  0.080323563   0.69355225   -1.3358767   0.22292751   -1.1129492 
   89200  0.057232563 -0.0039915559  0.052717305  0.077914139   0.66079627   -1.3669699    0.2123988   -1.1545711 
   89300  0.058879529 0.00034184832  0.055006378  0.080576779    0.8604289   -1.4113102   0.27656643   -1.1347438 
   89400  0.057490208 0.0014150833  0.053763082  0.078724808   0.76299108   -1.3746768   0.24524713   -1.1294296 
   89500   0.05395045   0.00724053  0.055155288   0.07749311   0.62195764   -1.3555152   0.19991496   -1.1556002 
   89600  0.051975555 0.0095073672  0.059238169  0.079378895   0.83423604   -1.4078001    0.2681473   -1.1396528 
   89700  0.043793378  0.013765974   0.06820327   0.08221343   0.68843268   -1.3643433   0.22128193   -1.1430614 
   89800  0.034490859  0.014266874  0.067805861  0.077400245   0.78910908   -1.3690955    0.2536422   -1.1154533 
   89900  0.014286424   0.02001323   0.07936731  0.083089116   0.62781341   -1.3290994   0.20179717   -1.1273022 
   90000 0.0048298414  0.011158146  0.078170403  0.079110325   0.48427545   -1.3755518   0.15565997   -1.2198918 
   90100 -0.007947569 0.0089784596  0.080183115  0.081074709   0.38986106   -1.3764421   0.12531248   -1.2511297 
   90200 -0.012184534 -0.0050631445  0.076701372  0.077828008   0.47996058   -1.3696691   0.15427304   -1.2153961 
   90300    -0.024115 -0.015540595  0.073281228  0.078696771   0.56979485   -1.3756804   0.18314834    -1.192532 
   90400 -0.022078862 -0.021019886  0.070504697  0.076812916   0.66026095   -1.3720361   0.21222673   -1.1598094 
   90500 -0.028676225 -0.043800124   0.06344849  0.082258663    0.6814198   -1.3441573   0.21902779   -1.1251295 
   90600 -0.026362364 -0.050116143  0.054882984  0.078859013   0.78527295   -1.3559785   0.25240916   -1.1035693 
   90700 -0.032401002 -0.048980481  0.055223185  0.080613352   0.86129568   -1.3370748   0.27684504   -1.0602298 
   90800 -0.024868104 -0.049513052  0.054323282  0.077594999   0.79550855   -1.3684454   0.25569918   -1.1127463 
   90900 -0.027741916 -0.055358237  0.047695056  0.078159878   0.52541148   -1.2950223   0.16888226     -1.12614 
   91000 -0.031577524 -0.068325082   0.03192044  0.081758005   0.72105197    -1.316944    0.2317667   -1.0851773 
   91100 -0.033231082  -0.06921539  0.030512226   0.08262004   0.78541504   -1.3275613   0.25245483   -1.0751065 
   91200 -0.031781778 -0.073483735  0.017285889  0.081906915   0.80477999   -1.3671111   0.25867928   -1.1084318 
   91300 -0.036326421 -0.071884723  0.008194654  0.080957857   0.86068774   -1.3845322   0.27664963   -1.1078826 
   91400 -0.037544392  -0.06808386 -0.0025993553  0.077792994    1.0033709   -1.3755219   0.32251209   -1.0530098 
   91500 -0.035742744 -0.068278153 -0.020931323  0.079859691   0.85430793   -1.3650547   0.27459898   -1.0904557 
   91600 -0.041524843 -0.062178872  -0.02650963  0.079330229   0.53718987   -1.3627605   0.17266817   -1.1900923 
   91700 -0.028701285 -0.062647646 -0.038743869  0.079054277   0.54020367   -1.4112372    0.1736369   -1.2376003 
   91800 -0.028333358 -0.058403394 -0.043876209   0.07835086   0.55571858   -1.4214919   0.17862383   -1.2428681 
   91900 -0.024472308  -0.05654167 -0.049681729  0.079146247   0.48259505   -1.3679813   0.15511984   -1.2128614 
   92000 -0.0093676331 -0.055188613 -0.062222254  0.083696741   0.60771311   -1.3383596   0.19533636   -1.1430233 
   92100 -0.008209459 -0.049492227 -0.060485021  0.078583163   0.85414079   -1.2791133   0.27454525    -1.004568 
   92200 -0.0031040477 -0.037822459 -0.073171668   0.08242734   0.98627149   -1.2886931   0.31701583  -0.97167729 
   92300  0.020004837 -0.037345515 -0.064925713  0.077525668   0.76587322   -1.2661426   0.24617354   -1.0199691 
   92400  0.029628138     -0.03339 -0.065416832  0.079196468   0.68772798   -1.3252442   0.22105542   -1.1041888 
   92500  0.032394712 -0.031605481 -0.064970948  0.079180477    0.5675795    -1.336325   0.18243627   -1.1538887 
   92600  0.041713302 -0.019635108 -0.066320573  0.080771006   0.41551274   -1.3539339   0.13355767   -1.2203762 
   92700  0.035171637 -0.011142466 -0.070649609  0.079702985   0.39599657   -1.3734906   0.12728461    -1.246206 
   92800   0.03887372 -0.00073636337 -0.067058992  0.077515268   0.31664499   -1.3585652   0.10177875   -1.2567864 
   92900  0.036116463  0.011101545 -0.069087016  0.078744263   0.36422174   -1.3726495   0.11707127   -1.2555783 
   93000  0.032666154  0.020179322 -0.068893207  0.078870506   0.28429602   -1.3302679  0.091380864    -1.238887 
   93100  0.040578699  0.033328691 -0.062277272  0.081460979   0.34624806   -1.3001587   0.11129402   -1.1888647 
   93200   0.03999263  0.043518834 -0.056745534  0.081935066   0.44943395   -1.2991721   0.14446091   -1.1547112 
   93300   0.05280453  0.049424518 -0.039360572  0.082342917   0.53411753   -1.3004062   0.17168063   -1.1287255 
   93400  0.051996855  0.054456914  -0.02709826  0.080022147   0.48864402   -1.3096893   0.15706415   -1.1526252 
   93500  0.059608342   0.05276774 -0.0080856123  0.080018535   0.58323204   -1.3833093   0.18746744   -1.1958419 
   93600  0.061185483   0.04880849 0.0044434638  0.078394364   0.34798503   -1.3461707   0.11185233   -1.2343184 
   93700  0.062324847  0.045470488  0.014911848   0.07857681      0.37007   -1.3800756   0.11895107   -1.2611245 
   93800  0.063419582  0.039649775  0.027420226   0.07966189   0.28355411   -1.3622024  0.091142394     -1.27106 
   93900  0.061974634  0.038876132  0.030584921   0.07929468   0.24999037   -1.3455889  0.080354048   -1.2652348 
   94000  0.062295508  0.025771477  0.045945249  0.081583487   0.30611754   -1.3284209  0.098394923    -1.230026 
   94100  0.058950342  0.022454524  0.050440786  0.080768938    0.5249371   -1.3098979   0.16872978   -1.1411681 
   94200  0.052580494 0.0033292504   0.06166322  0.081105764   0.91073523   -1.3244229   0.29273632   -1.0316865 
   94300   0.04369205 -0.012010225  0.064860674  0.079121095    1.0969857   -1.3787291   0.35260256   -1.0261265 
   94400  0.032791422 -0.022753498  0.071766187  0.082118114   0.77277087   -1.3470078   0.24839064   -1.0986171 
   94500  0.024537222 -0.041417952  0.062866158  0.079181285   0.59824225   -1.3746525   0.19229215   -1.1823604 
   94600  0.017722096 -0.041279601  0.064682161  0.078751889   0.57957338   -1.3800972   0.18629144   -1.1938058 
   94700  0.011749556 -0.053660658  0.055920033  0.078387297   0.78032691   -1.4228654   0.25081937    -1.172046 
   94800 0.0084816985 -0.063399396  0.048755902  0.080427362   0.68550212   -1.3618501   0.22033997   -1.1415101 
   94900 0.0057369871 -0.069307207  0.046089354  0.083430393   0.41418005   -1.2488396    0.1331293   -1.1157103 
   95000 -0.0043390511 -0.079443904  0.030146157  0.085082031   0.34157152   -1.2791348   0.10979084    -1.169344 
   95100 -0.00083540151 -0.075771898  0.024831429  0.079741321   0.42354309   -1.3649831   0.13613885   -1.2288443 
   95200 -0.0042453508  -0.07706508  0.012971189  0.078264304   0.42415258   -1.3709023   0.13633476   -1.2345676 
   95300 -0.0057902225  -0.07840782 0.0029424271  0.078676367   0.63426217   -1.4096009   0.20386998   -1.2057309 
   95400 0.00034503255 -0.079514557 0.0026851454   0.07956063   0.60282107   -1.3327519   0.19376392    -1.138988 
   95500 0.0025245058 -0.076489137 -0.014128488  0.077824003   0.84433488   -1.3563817   0.27139335   -1.0849884 
   95600 0.0026056827 -0.081388679 -0.028970409  0.086430268   0.69331558   -1.2773988   0.22285144   -1.0545473 
   95700  0.021369011 -0.069632887 -0.031632115  0.079410102   0.69571506   -1.2829429    0.2236227   -1.0593202 
   95800  0.027171415 -0.067534901 -0.035210403  0.080864214   0.48181636   -1.2262014   0.15486954   -1.0713319 
   95900   0.04056733 -0.061175094 -0.031876023  0.080026128    1.0371684   -1.3337612   0.33337555   -1.0003856 
   96000  0.044521584 -0.046309783 -0.042731102  0.077153836   0.68664354   -1.2705995   0.22070685   -1.0498926 
   96100  0.047564841 -0.038155519 -0.054477923  0.081768587   0.47266462   -1.2988926   0.15192791   -1.1469646 
   96200  0.053760344 -0.023569043 -0.051358991  0.077996284   0.31353918   -1.3085731   0.10078045   -1.2077927 
   96300  0.056265298 -0.012694535 -0.061576978  0.084372146   0.23752936   -1.3209846  0.076348724   -1.2446359 
   96400  0.061287648 -0.014667071 -0.046256736  0.078172785   0.22777446    -1.315537  0.073213218   -1.2423238 
   96500  0.062699187 -0.0088792828 -0.052566328  0.082299748   0.23448057   -1.3139251  0.075368755   -1.2385564 
   96600  0.064679546 -0.0044363357 -0.040683037  0.076539102   0.48374319   -1.3459048   0.15548888    -1.190416 
   96700  0.069603957 -0.0043071273 -0.029979402  0.075908015   0.40190781   -1.2611172   0.12918465   -1.1319325 
   96800  0.073671562 0.00026460006 -0.0082615228   0.07413381   0.88529361   -1.3218864   0.28455866   -1.0373278 
   96900  0.078397458 0.00078374031  0.019994345   0.08091075   0.79128119   -1.2257151   0.25434038  -0.97137468 
   97000  0.072592875 0.0007968548  0.044282562  0.085037084    0.7542423   -1.3039309   0.24243503   -1.0614958 
   97100  0.063690156 -0.0026537748  0.042821138  0.076792762   0.48080944   -1.2633029   0.15454589    -1.108757 
   97200  0.060577143 -0.0057531719  0.049522695  0.078454997    0.2412461   -1.2396678  0.077543389   -1.1621244 
   97300  0.057726871 -0.005965203  0.052060651  0.077963368   0.34441523    -1.323966    0.1107049   -1.2132611 
   97400  0.061036796 -0.014447306  0.050178881  0.080325184   0.50658384     -1.34976   0.16283052   -1.1869295 
   97500  0.057181071 -0.011974462  0.057754656  0.082150245   0.39497986   -1.2982594   0.12695781   -1.1713016 
   97600  0.058345317 -0.018843256  0.049494329  0.078796782   0.65861917   -1.3574743   0.21169902   -1.1457753 
   97700  0.059599926 -0.024854575  0.041522609  0.076772574   0.75635969   -1.3446096   0.24311561    -1.101494 
   97800  0.053914484 -0.029589869  0.046877958  0.077329651    0.8033604   -1.2395868   0.25822298  -0.98136378 
   97900   0.04472579 -0.026809644  0.059420335  0.079056496    1.0864163   -1.2768684   0.34920525   -0.9276631 
   98000    0.0446612  -0.01440329  0.060614724  0.076656522   0.91220185   -1.2917303   0.29320774   -0.9985226 
   98100  0.051597596 -0.007259758  0.060962314  0.080196132   0.43579802   -1.2952608   0.14007793   -1.1551829 
   98200  0.047353075 -0.016130251  0.063068812  0.080499526   0.31008525   -1.3560888  0.099670259   -1.2564185 
   98300  0.043269356 -0.022363149  0.061272644  0.078273141   0.24192873   -1.3843807  0.077762806   -1.3066179 
   98400  0.044718324 -0.015103279  0.063804722  0.079365484   0.17938512   -1.3897544  0.057659502   -1.3320949 
   98500  0.043923079 -0.023316968  0.062323646  0.079731767   0.17276711    -1.378623  0.055532286   -1.3230907 
   98600  0.044823974 -0.019814119  0.062287389  0.079255957    0.3344158   -1.4052782   0.10749079   -1.2977874 
   98700  0.045059321  -0.01843905   0.05983261  0.077138072   0.36169825   -1.3538781   0.11626015   -1.2376179 
   98800  0.038461203  -0.02800587  0.066676667  0.081910749   0.60523144   -1.3507315   0.19453868   -1.1561929 
   98900   0.03905758  -0.02247542  0.067984243  0.081562837    0.8162385    -1.362937   0.26236238   -1.1005746 
   99000   0.03142446  -0.03127708  0.063216493   0.07721449   0.98277898   -1.3899318   0.31589324   -1.0740386 
   99100   0.02501414 -0.038352904    0.0703358  0.083927214   0.47672346   -1.2258295   0.15323254    -1.072597 
   99200  0.031557464 -0.027020373  0.071709898  0.082875108   0.57274689   -1.2613579   0.18409721   -1.0772607 
   99300  0.040859179 -0.019644664  0.067939112  0.081676853   0.62599293   -1.3037739   0.20121201   -1.1025619 
   99400  0.048398843 -0.028520101   0.05505699  0.078658224   0.40181478   -1.2865053   0.12915475   -1.1573505 
   99500  0.042976155 -0.038437789  0.053740388  0.078819051   0.49789766   -1.3510207   0.16003853   -1.1909822 
   99600  0.039630285  -0.05059321  0.046380517  0.079255187   0.47150282   -1.3551721   0.15155448   -1.2036176 
   99700  0.030588117 -0.057762314  0.041925731  0.077652333   0.54433441   -1.3262581   0.17496463   -1.1512935 
   99800   0.02397973 -0.060352073  0.049561067  0.081692714   0.63528758    -1.323743   0.20419958   -1.1195434 
   99900  0.015735327 -0.067188206  0.040737809  0.080133792   0.79638807   -1.3680536   0.25598188   -1.1120717 
  100000  0.018565442 -0.071697713  0.025111862  0.078203857   0.57914957   -1.3436217   0.18615522   -1.1574664 
Loop time of 1.13792 on 1 procs for 100000 steps with 14 atoms

Performance: 37963891.067 tau/day, 87879.377 timesteps/s
92.7% CPU use with 1 MPI tasks x no OpenMP threads

MPI task timing breakdown:
Section |  min time  |  avg time  |  max time  |%varavg| %total
---------------------------------------------------------------
Pair    | 0.057689   | 0.057689   | 0.057689   |   0.0 |  5.07
Bond    | 0.0034975  | 0.0034975  | 0.0034975  |   0.0 |  0.31
Neigh   | 0.081077   | 0.081077   | 0.081077   |   0.0 |  7.12
Comm    | 0.0176     | 0.0176     | 0.0176     |   0.0 |  1.55
Output  | 0.073052   | 0.073052   | 0.073052   |   0.0 |  6.42
Modify  | 0.8819     | 0.8819     | 0.8819     |   0.0 | 77.50
Other   |            | 0.02311    |            |       |  2.03

Nlocal:    14 ave 14 max 14 min
Histogram: 1 0 0 0 0 0 0 0 0 0
Nghost:    0 ave 0 max 0 min
Histogram: 1 0 0 0 0 0 0 0 0 0
Neighs:    49 ave 49 max 49 min
Histogram: 1 0 0 0 0 0 0 0 0 0

Total # of neighbors = 49
Ave neighs/atom = 3.5
Ave special neighs/atom = 6
Neighbor list builds = 2857
Dangerous builds = 0

unfix rigid_1_NVT
unfix rigid_2_NVT
unfix hex_spring_NVT

################################ NVE SIMULATION #################################
# ------------------------------- SYSTEM FIXES ----------------------------------
fix rig_hex_1 hex_1 rigid/nve/small molecule
  create bodies CPU = 8.8e-06 secs
1 rigid bodies with 7 atoms
  1 = max distance from body owner to body atom
fix rig_hex_2 hex_2 rigid/nve/small molecule
  create bodies CPU = 5.5e-06 secs
1 rigid bodies with 7 atoms
  1 = max distance from body owner to body atom
fix hex_spring hex_1 spring couple hex_2 ${K} 0.0 0.0 0.0 ${r0} # spring between RBs
fix hex_spring hex_1 spring couple hex_2 0.090702947845805 0.0 0.0 0.0 ${r0} 
fix hex_spring hex_1 spring couple hex_2 0.090702947845805 0.0 0.0 0.0 0 
# f_hex_spring[1,2,3,4] = force_x, force_y, force_z, magnitude of the force

# ----------------------------- PROPERTY COMPUTES -------------------------------
# Calculate rigid body properties - local data, so must be outputted using dump ... "local"
compute com_1   all rigid/local rig_hex_1 xu yu zu                  # RB1 unscaled center of mass x, y, z
compute com_2   all rigid/local rig_hex_2 xu yu zu                  # RB2 unscaled center of mass x, y, z
compute vel_1   all rigid/local rig_hex_1 vx vy vz                  # RB1 center of mass velocities vx, vy, vz
compute vel_2   all rigid/local rig_hex_2 vx vy vz                  # RB2 center of mass velocities vx, vy, vz
compute q_1     all rigid/local rig_hex_1 quati quatj quatk quatw   # RB1 quaternion components
compute q_2     all rigid/local rig_hex_2 quati quatj quatk quatw   # RB2 quaternion components
compute av_1    all rigid/local rig_hex_1 omegax omegay omegaz      # RB1 angular velocities
compute av_2    all rigid/local rig_hex_2 omegax omegay omegaz      # RB2 angular velocities
compute am_1    all rigid/local rig_hex_1 angmomx angmomy angmomz   # RB1 angular momenta
compute am_2    all rigid/local rig_hex_2 angmomx angmomy angmomz   # RB2 angular momenta
compute i_1    all rigid/local rig_hex_1 inertiax inertiay inertiaz # RB1 inertia
compute i_2    all rigid/local rig_hex_2 inertiax inertiay inertiaz # RB2 inertia

# ----------------------------- CONFIGURE OUTPUTS -------------------------------
thermo_style custom step f_hex_spring[*] temp pe ke etotal
dump    1 all custom ${log_freq} ${traj}       id type x y z
dump    1 all custom 100 ${traj}       id type x y z
dump    1 all custom 100 NVE-temp-0.45_K-0.090702947845805_r-0_s-5-traj.dump       id type x y z
dump    2 all local  ${log_freq} ${rb_info}  c_com_1[*] c_com_2[*]     c_vel_1[*] c_vel_2[*] c_q_1[*] c_q_2[*] c_av_1[*] c_av_2[*]        c_am_1[*] c_am_2[*] c_i_1[*] c_i_2[*]
dump    2 all local  100 ${rb_info}  c_com_1[*] c_com_2[*]     c_vel_1[*] c_vel_2[*] c_q_1[*] c_q_2[*] c_av_1[*] c_av_2[*]        c_am_1[*] c_am_2[*] c_i_1[*] c_i_2[*]
dump    2 all local  100 NVE-temp-0.45_K-0.090702947845805_r-0_s-5-info.dat  c_com_1[*] c_com_2[*]     c_vel_1[*] c_vel_2[*] c_q_1[*] c_q_2[*] c_av_1[*] c_av_2[*]        c_am_1[*] c_am_2[*] c_i_1[*] c_i_2[*]

log ${sim_log} # create new log file with simulation information only
log NVE-temp-0.45_K-0.090702947845805_r-0_s-5-sim.log 
