ITEM: TIMESTEP
100000
ITEM: NUMBER OF ENTRIES
1
ITEM: BOX BOUNDS pp pp pp
-25 29
-25 25
-25 25
ITEM: ENTRIES c_com_1[1] c_com_1[2] c_com_1[3] c_com_2[1] c_com_2[2] c_com_2[3] c_vel_1[1] c_vel_1[2] c_vel_1[3] c_vel_2[1] c_vel_2[2] c_vel_2[3] c_q_1[1] c_q_1[2] c_q_1[3] c_q_1[4] c_q_2[1] c_q_2[2] c_q_2[3] c_q_2[4] c_av_1[1] c_av_1[2] c_av_1[3] c_av_2[1] c_av_2[2] c_av_2[3] c_am_1[1] c_am_1[2] c_am_1[3] c_am_2[1] c_am_2[2] c_am_2[3] c_i_1[1] c_i_1[2] c_i_1[3] c_i_2[1] c_i_2[2] c_i_2[3] 
-16.6765 24.6353 -33.6875 -17.5516 19.3545 -34.2821 0.622844 -0.231928 0.501839 0.548717 -0.0273489 -0.52437 0.10502 -0.303477 -0.108862 0.940756 0.268594 -0.0982312 0.104305 0.952538 0.763926 -0.360078 -0.211069 0.00174196 0.188866 0.848364 3.68457 -1.55247 0.330602 -0.427655 2.00213 3.39062 6 3 3 3 6 3 
ITEM: TIMESTEP
110000
ITEM: NUMBER OF ENTRIES
1
ITEM: BOX BOUNDS pp pp pp
-25 29
-25 25
-25 25
ITEM: ENTRIES c_com_1[1] c_com_1[2] c_com_1[3] c_com_2[1] c_com_2[2] c_com_2[3] c_vel_1[1] c_vel_1[2] c_vel_1[3] c_vel_2[1] c_vel_2[2] c_vel_2[3] c_q_1[1] c_q_1[2] c_q_1[3] c_q_1[4] c_q_2[1] c_q_2[2] c_q_2[3] c_q_2[4] c_av_1[1] c_av_1[2] c_av_1[3] c_av_2[1] c_av_2[2] c_av_2[3] c_am_1[1] c_am_1[2] c_am_1[3] c_am_2[1] c_am_2[2] c_am_2[3] c_i_1[1] c_i_1[2] c_i_1[3] c_i_2[1] c_i_2[2] c_i_2[3] 
-16.6213 24.57 -33.6423 -17.4897 19.3939 -34.3295 0.483164 -1.06968 0.399162 0.688397 0.810407 -0.421694 0.139825 -0.31623 -0.128668 0.929458 0.27443 -0.0775686 0.141797 0.947927 0.778705 -0.325468 -0.213256 0.0361245 0.203091 0.844301 3.68457 -1.55247 0.330602 -0.427655 2.00213 3.39062 6 3 3 3 6 3 
ITEM: TIMESTEP
120000
ITEM: NUMBER OF ENTRIES
1
ITEM: BOX BOUNDS pp pp pp
-25 29
-25 25
-25 25
ITEM: ENTRIES c_com_1[1] c_com_1[2] c_com_1[3] c_com_2[1] c_com_2[2] c_com_2[3] c_vel_1[1] c_vel_1[2] c_vel_1[3] c_vel_2[1] c_vel_2[2] c_vel_2[3] c_q_1[1] c_q_1[2] c_q_1[3] c_q_1[4] c_q_2[1] c_q_2[2] c_q_2[3] c_q_2[4] c_av_1[1] c_av_1[2] c_av_1[3] c_av_2[1] c_av_2[2] c_av_2[3] c_am_1[1] c_am_1[2] c_am_1[3] c_am_2[1] c_am_2[2] c_am_2[3] c_i_1[1] c_i_1[2] c_i_1[3] c_i_2[1] c_i_2[2] c_i_2[3] 
-16.5797 24.4229 -33.608 -17.4141 19.515 -34.366 0.349504 -1.86121 0.285766 0.822056 1.60193 -0.308297 0.174825 -0.326672 -0.148688 0.91685 0.281423 -0.0563055 0.178419 0.941168 0.793084 -0.290738 -0.210424 0.0683344 0.221009 0.837783 3.68457 -1.55247 0.330602 -0.427655 2.00213 3.39062 6 3 3 3 6 3 
ITEM: TIMESTEP
130000
ITEM: NUMBER OF ENTRIES
1
ITEM: BOX BOUNDS pp pp pp
-25 29
-25 25
-25 25
ITEM: ENTRIES c_com_1[1] c_com_1[2] c_com_1[3] c_com_2[1] c_com_2[2] c_com_2[3] c_vel_1[1] c_vel_1[2] c_vel_1[3] c_vel_2[1] c_vel_2[2] c_vel_2[3] c_q_1[1] c_q_1[2] c_q_1[3] c_q_1[4] c_q_2[1] c_q_2[2] c_q_2[3] c_q_2[4] c_av_1[1] c_av_1[2] c_av_1[3] c_av_2[1] c_av_2[2] c_av_2[3] c_am_1[1] c_am_1[2] c_am_1[3] c_am_2[1] c_am_2[2] c_am_2[3] c_i_1[1] c_i_1[2] c_i_1[3] c_i_2[1] c_i_2[2] c_i_2[3] 
-16.5509 24.2006 -33.5853 -17.3257 19.7114 -34.391 0.228711 -2.56664 0.168461 0.94285 2.30736 -0.190992 0.20997 -0.334761 -0.168715 0.902985 0.289492 -0.0343955 0.213979 0.932322 0.806807 -0.256507 -0.202622 0.0978109 0.242308 0.828924 3.68457 -1.55247 0.330602 -0.427655 2.00213 3.39062 6 3 3 3 6 3 
ITEM: TIMESTEP
140000
ITEM: NUMBER OF ENTRIES
1
ITEM: BOX BOUNDS pp pp pp
-25 29
-25 25
-25 25
ITEM: ENTRIES c_com_1[1] c_com_1[2] c_com_1[3] c_com_2[1] c_com_2[2] c_com_2[3] c_vel_1[1] c_vel_1[2] c_vel_1[3] c_vel_2[1] c_vel_2[2] c_vel_2[3] c_q_1[1] c_q_1[2] c_q_1[3] c_q_1[4] c_q_2[1] c_q_2[2] c_q_2[3] c_q_2[4] c_av_1[1] c_av_1[2] c_av_1[3] c_av_2[1] c_av_2[2] c_av_2[3] c_am_1[1] c_am_1[2] c_am_1[3] c_am_2[1] c_am_2[2] c_am_2[3] c_i_1[1] c_i_1[2] c_i_1[3] c_i_2[1] c_i_2[2] c_i_2[3] 
-16.5333 23.9136 -33.5742 -17.2262 19.9725 -34.4044 0.127027 -3.15081 0.0552579 1.04453 2.89153 -0.0777893 0.245205 -0.340473 -0.188537 0.887923 0.298544 -0.0117984 0.24829 0.921458 0.819629 -0.223385 -0.18999 0.124041 0.266618 0.817877 3.68457 -1.55247 0.330602 -0.427655 2.00213 3.39062 6 3 3 3 6 3 
ITEM: TIMESTEP
150000
ITEM: NUMBER OF ENTRIES
1
ITEM: BOX BOUNDS pp pp pp
-25 29
-25 25
-25 25
ITEM: ENTRIES c_com_1[1] c_com_1[2] c_com_1[3] c_com_2[1] c_com_2[2] c_com_2[3] c_vel_1[1] c_vel_1[2] c_vel_1[3] c_vel_2[1] c_vel_2[2] c_vel_2[3] c_q_1[1] c_q_1[2] c_q_1[3] c_q_1[4] c_q_2[1] c_q_2[2] c_q_2[3] c_q_2[4] c_av_1[1] c_av_1[2] c_av_1[3] c_av_2[1] c_av_2[2] c_av_2[3] c_am_1[1] c_am_1[2] c_am_1[3] c_am_2[1] c_am_2[2] c_am_2[3] c_i_1[1] c_i_1[2] c_i_1[3] c_i_2[1] c_i_2[2] c_i_2[3] 
-16.5247 23.5755 -33.5738 -17.1177 20.2847 -34.407 0.0498061 -3.5853 -0.0443884 1.12175 3.32603 0.021857 0.28047 -0.343804 -0.207943 0.87172 0.308469 0.0115197 0.28118 0.908654 0.831321 -0.191966 -0.172753 0.146569 0.293516 0.804836 3.68457 -1.55247 0.330602 -0.427655 2.00213 3.39062 6 3 3 3 6 3 
ITEM: TIMESTEP
160000
ITEM: NUMBER OF ENTRIES
1
ITEM: BOX BOUNDS pp pp pp
-25 29
-25 25
-25 25
ITEM: ENTRIES c_com_1[1] c_com_1[2] c_com_1[3] c_com_2[1] c_com_2[2] c_com_2[3] c_vel_1[1] c_vel_1[2] c_vel_1[3] c_vel_2[1] c_vel_2[2] c_vel_2[3] c_q_1[1] c_q_1[2] c_q_1[3] c_q_1[4] c_q_2[1] c_q_2[2] c_q_2[3] c_q_2[4] c_av_1[1] c_av_1[2] c_av_1[3] c_av_2[1] c_av_2[2] c_av_2[3] c_am_1[1] c_am_1[2] c_am_1[3] c_am_2[1] c_am_2[2] c_am_2[3] c_i_1[1] c_i_1[2] c_i_1[3] c_i_2[1] c_i_2[2] c_i_2[3] 
-16.5224 23.2022 -33.5822 -17.0028 20.632 -34.4008 0.00127712 -3.85064 -0.118575 1.17028 3.59136 0.0960432 0.315704 -0.344775 -0.226724 0.854434 0.319145 0.035585 0.312485 0.893999 0.841674 -0.162809 -0.15122 0.165001 0.322532 0.790027 3.68457 -1.55247 0.330602 -0.427655 2.00213 3.39062 6 3 3 3 6 3 
ITEM: TIMESTEP
170000
ITEM: NUMBER OF ENTRIES
1
ITEM: BOX BOUNDS pp pp pp
-25 29
-25 25
-25 25
ITEM: ENTRIES c_com_1[1] c_com_1[2] c_com_1[3] c_com_2[1] c_com_2[2] c_com_2[3] c_vel_1[1] c_vel_1[2] c_vel_1[3] c_vel_2[1] c_vel_2[2] c_vel_2[3] c_q_1[1] c_q_1[2] c_q_1[3] c_q_1[4] c_q_2[1] c_q_2[2] c_q_2[3] c_q_2[4] c_av_1[1] c_av_1[2] c_av_1[3] c_av_2[1] c_av_2[2] c_av_2[3] c_am_1[1] c_am_1[2] c_am_1[3] c_am_2[1] c_am_2[2] c_am_2[3] c_i_1[1] c_i_1[2] c_i_1[3] c_i_2[1] c_i_2[2] c_i_2[3] 
-16.5246 22.8128 -33.5936 -16.8835 20.9954 -34.3916 -0.119432 -3.8101 0.0439453 1.29099 3.55082 -0.0664767 0.349932 -0.343057 -0.245962 0.836279 0.32819 0.060764 0.340281 0.879095 0.816814 0.0392656 -0.327633 -0.24274 0.368702 0.460358 3.16207 -0.602517 -0.538819 -1.77372 2.14151 2.53887 6 3 3 3 6 3 
ITEM: TIMESTEP
180000
ITEM: NUMBER OF ENTRIES
1
ITEM: BOX BOUNDS pp pp pp
-25 29
-25 25
-25 25
ITEM: ENTRIES c_com_1[1] c_com_1[2] c_com_1[3] c_com_2[1] c_com_2[2] c_com_2[3] c_vel_1[1] c_vel_1[2] c_vel_1[3] c_vel_2[1] c_vel_2[2] c_vel_2[3] c_q_1[1] c_q_1[2] c_q_1[3] c_q_1[4] c_q_2[1] c_q_2[2] c_q_2[3] c_q_2[4] c_av_1[1] c_av_1[2] c_av_1[3] c_av_2[1] c_av_2[2] c_av_2[3] c_am_1[1] c_am_1[2] c_am_1[3] c_am_2[1] c_am_2[2] c_am_2[3] c_i_1[1] c_i_1[2] c_i_1[3] c_i_2[1] c_i_2[2] c_i_2[3] 
-16.5784 22.6296 -33.5305 -16.7125 21.1528 -34.4571 -0.735643 -0.369315 1.00488 1.9072 0.110038 -1.02741 0.452609 -0.237901 -0.34932 0.78519 0.265383 0.0870306 0.23234 0.931673 5.33831 2.60769 -0.438466 -2.76429 0.89287 -3.48091 18.7415 4.58252 -1.07197 -8.15095 2.40293 -10.6391 6 3 3 3 6 3 
ITEM: TIMESTEP
190000
ITEM: NUMBER OF ENTRIES
1
ITEM: BOX BOUNDS pp pp pp
-25 29
-25 25
-25 25
ITEM: ENTRIES c_com_1[1] c_com_1[2] c_com_1[3] c_com_2[1] c_com_2[2] c_com_2[3] c_vel_1[1] c_vel_1[2] c_vel_1[3] c_vel_2[1] c_vel_2[2] c_vel_2[3] c_q_1[1] c_q_1[2] c_q_1[3] c_q_1[4] c_q_2[1] c_q_2[2] c_q_2[3] c_q_2[4] c_av_1[1] c_av_1[2] c_av_1[3] c_av_2[1] c_av_2[2] c_av_2[3] c_am_1[1] c_am_1[2] c_am_1[3] c_am_2[1] c_am_2[2] c_am_2[3] c_i_1[1] c_i_1[2] c_i_1[3] c_i_2[1] c_i_2[2] c_i_2[3] 
-16.652 22.5952 -33.4283 -16.5218 21.1612 -34.5615 -0.735901 -0.323022 1.0368 1.90746 0.0637444 -1.05934 0.594757 -0.0352941 -0.455918 0.661179 0.157371 0.112429 0.0412992 0.980249 5.42618 2.44074 0.340972 -2.72256 0.916831 -3.50747 18.7463 4.58686 -1.0795 -8.15095 2.40293 -10.6391 6 3 3 3 6 3 
ITEM: TIMESTEP
200000
ITEM: NUMBER OF ENTRIES
1
ITEM: BOX BOUNDS pp pp pp
-25 29
-25 25
-25 25
ITEM: ENTRIES c_com_1[1] c_com_1[2] c_com_1[3] c_com_2[1] c_com_2[2] c_com_2[3] c_vel_1[1] c_vel_1[2] c_vel_1[3] c_vel_2[1] c_vel_2[2] c_vel_2[3] c_q_1[1] c_q_1[2] c_q_1[3] c_q_1[4] c_q_2[1] c_q_2[2] c_q_2[3] c_q_2[4] c_av_1[1] c_av_1[2] c_av_1[3] c_av_2[1] c_av_2[2] c_av_2[3] c_am_1[1] c_am_1[2] c_am_1[3] c_am_2[1] c_am_2[2] c_am_2[3] c_i_1[1] c_i_1[2] c_i_1[3] c_i_2[1] c_i_2[2] c_i_2[3] 
-16.73 22.5702 -33.3203 -16.3266 21.1604 -34.6718 -0.894647 -0.0355232 1.25906 2.06621 -0.223754 -1.28159 0.696873 0.175847 -0.49393 0.489366 0.0494419 0.134096 -0.15005 0.978294 5.12206 1.99821 0.396745 -2.13871 0.938072 -3.32507 17.3765 4.93041 -2.65218 -6.37273 2.94858 -9.96722 6 3 3 3 6 3 
ITEM: TIMESTEP
210000
ITEM: NUMBER OF ENTRIES
1
ITEM: BOX BOUNDS pp pp pp
-25 29
-25 25
-25 25
ITEM: ENTRIES c_com_1[1] c_com_1[2] c_com_1[3] c_com_2[1] c_com_2[2] c_com_2[3] c_vel_1[1] c_vel_1[2] c_vel_1[3] c_vel_2[1] c_vel_2[2] c_vel_2[3] c_q_1[1] c_q_1[2] c_q_1[3] c_q_1[4] c_q_2[1] c_q_2[2] c_q_2[3] c_q_2[4] c_av_1[1] c_av_1[2] c_av_1[3] c_av_2[1] c_av_2[2] c_av_2[3] c_am_1[1] c_am_1[2] c_am_1[3] c_am_2[1] c_am_2[2] c_am_2[3] c_i_1[1] c_i_1[2] c_i_1[3] c_i_2[1] c_i_2[2] c_i_2[3] 
-16.8139 22.6414 -33.0582 -16.1255 21.0632 -34.9361 -0.814055 0.972404 3.15336 1.98562 -1.23168 -3.1759 0.716981 0.258474 -0.505088 0.404989 0.0343473 0.127677 -0.290106 0.947817 0.933799 0.670257 0.0468936 -0.155821 -0.239122 -2.61331 3.08242 1.98042 -0.595992 -0.906481 -1.36903 -7.83288 6 3 3 3 6 3 
ITEM: TIMESTEP
220000
ITEM: NUMBER OF ENTRIES
1
ITEM: BOX BOUNDS pp pp pp
-25 29
-25 25
-25 25
ITEM: ENTRIES c_com_1[1] c_com_1[2] c_com_1[3] c_com_2[1] c_com_2[2] c_com_2[3] c_vel_1[1] c_vel_1[2] c_vel_1[3] c_vel_2[1] c_vel_2[2] c_vel_2[3] c_q_1[1] c_q_1[2] c_q_1[3] c_q_1[4] c_q_2[1] c_q_2[2] c_q_2[3] c_q_2[4] c_av_1[1] c_av_1[2] c_av_1[3] c_av_2[1] c_av_2[2] c_av_2[3] c_am_1[1] c_am_1[2] c_am_1[3] c_am_2[1] c_am_2[2] c_am_2[3] c_i_1[1] c_i_1[2] c_i_1[3] c_i_2[1] c_i_2[2] c_i_2[3] 
-16.8926 22.7328 -32.7503 -15.9297 20.9459 -35.2462 -0.74909 0.841225 2.98166 1.92065 -1.1005 -3.0042 0.717591 0.296946 -0.514661 0.363332 0.0483758 0.107984 -0.411442 0.903723 0.950175 0.646414 0.0523584 -0.104641 -0.284322 -2.61133 3.08242 1.98042 -0.595992 -0.906481 -1.36903 -7.83288 6 3 3 3 6 3 
ITEM: TIMESTEP
230000
ITEM: NUMBER OF ENTRIES
1
ITEM: BOX BOUNDS pp pp pp
-25 29
-25 25
-25 25
ITEM: ENTRIES c_com_1[1] c_com_1[2] c_com_1[3] c_com_2[1] c_com_2[2] c_com_2[3] c_vel_1[1] c_vel_1[2] c_vel_1[3] c_vel_2[1] c_vel_2[2] c_vel_2[3] c_q_1[1] c_q_1[2] c_q_1[3] c_q_1[4] c_q_2[1] c_q_2[2] c_q_2[3] c_q_2[4] c_av_1[1] c_av_1[2] c_av_1[3] c_av_2[1] c_av_2[2] c_av_2[3] c_am_1[1] c_am_1[2] c_am_1[3] c_am_2[1] c_am_2[2] c_am_2[3] c_i_1[1] c_i_1[2] c_i_1[3] c_i_2[1] c_i_2[2] c_i_2[3] 
-16.9619 22.8071 -32.4665 -15.7432 20.8456 -35.5323 -0.627974 0.633681 2.67304 1.79953 -0.892958 -2.69557 0.716692 0.334547 -0.521354 0.320343 0.0646312 0.0850356 -0.525141 0.844286 0.966313 0.621868 0.0542596 -0.0670218 -0.341069 -2.60577 3.08242 1.98042 -0.595992 -0.906481 -1.36903 -7.83288 6 3 3 3 6 3 
ITEM: TIMESTEP
240000
ITEM: NUMBER OF ENTRIES
1
ITEM: BOX BOUNDS pp pp pp
-25 29
-25 25
-25 25
ITEM: ENTRIES c_com_1[1] c_com_1[2] c_com_1[3] c_com_2[1] c_com_2[2] c_com_2[3] c_vel_1[1] c_vel_1[2] c_vel_1[3] c_vel_2[1] c_vel_2[2] c_vel_2[3] c_q_1[1] c_q_1[2] c_q_1[3] c_q_1[4] c_q_2[1] c_q_2[2] c_q_2[3] c_q_2[4] c_av_1[1] c_av_1[2] c_av_1[3] c_av_2[1] c_av_2[2] c_av_2[3] c_am_1[1] c_am_1[2] c_am_1[3] c_am_2[1] c_am_2[2] c_am_2[3] c_i_1[1] c_i_1[2] c_i_1[3] c_i_2[1] c_i_2[2] c_i_2[3] 
-17.0163 22.8576 -32.2199 -15.5716 20.7692 -35.7811 -0.452926 0.367805 2.23757 1.62449 -0.627082 -2.26011 0.714322 0.371065 -0.525167 0.276142 0.0826009 0.0588476 -0.629153 0.770637 0.981966 0.596996 0.0525682 -0.0456257 -0.405348 -2.59701 3.08242 1.98042 -0.595992 -0.906481 -1.36903 -7.83288 6 3 3 3 6 3 
ITEM: TIMESTEP
250000
ITEM: NUMBER OF ENTRIES
1
ITEM: BOX BOUNDS pp pp pp
-25 29
-25 25
-25 25
ITEM: ENTRIES c_com_1[1] c_com_1[2] c_com_1[3] c_com_2[1] c_com_2[2] c_com_2[3] c_vel_1[1] c_vel_1[2] c_vel_1[3] c_vel_2[1] c_vel_2[2] c_vel_2[3] c_q_1[1] c_q_1[2] c_q_1[3] c_q_1[4] c_q_2[1] c_q_2[2] c_q_2[3] c_q_2[4] c_av_1[1] c_av_1[2] c_av_1[3] c_av_2[1] c_av_2[2] c_av_2[3] c_am_1[1] c_am_1[2] c_am_1[3] c_am_2[1] c_am_2[2] c_am_2[3] c_i_1[1] c_i_1[2] c_i_1[3] c_i_2[1] c_i_2[2] c_i_2[3] 
-17.0509 22.8793 -32.0225 -15.4199 20.7216 -35.9808 -0.230801 0.0613177 1.69457 1.40236 -0.320595 -1.7171 0.710519 0.406289 -0.526118 0.23085 0.10169 0.0295269 -0.721609 0.684155 0.996895 0.572176 0.0473099 -0.0419662 -0.472613 -2.58568 3.08242 1.98042 -0.595992 -0.906481 -1.36903 -7.83288 6 3 3 3 6 3 
ITEM: TIMESTEP
260000
ITEM: NUMBER OF ENTRIES
1
ITEM: BOX BOUNDS pp pp pp
-25 29
-25 25
-25 25
ITEM: ENTRIES c_com_1[1] c_com_1[2] c_com_1[3] c_com_2[1] c_com_2[2] c_com_2[3] c_vel_1[1] c_vel_1[2] c_vel_1[3] c_vel_2[1] c_vel_2[2] c_vel_2[3] c_q_1[1] c_q_1[2] c_q_1[3] c_q_1[4] c_q_2[1] c_q_2[2] c_q_2[3] c_q_2[4] c_av_1[1] c_av_1[2] c_av_1[3] c_av_2[1] c_av_2[2] c_av_2[3] c_am_1[1] c_am_1[2] c_am_1[3] c_am_2[1] c_am_2[2] c_am_2[3] c_i_1[1] c_i_1[2] c_i_1[3] c_i_2[1] c_i_2[2] c_i_2[3] 
-17.0613 22.8691 -31.8838 -15.2924 20.7059 -36.1218 0.0282437 -0.267821 1.0701 1.14332 0.00854362 -1.09263 0.705324 0.440016 -0.52424 0.184596 0.121239 -0.00272571 -0.800862 0.586442 1.01087 0.54779 0.0385651 -0.0563021 -0.538104 -2.57257 3.08242 1.98042 -0.595992 -0.906481 -1.36903 -7.83288 6 3 3 3 6 3 
ITEM: TIMESTEP
270000
ITEM: NUMBER OF ENTRIES
1
ITEM: BOX BOUNDS pp pp pp
-25 29
-25 25
-25 25
ITEM: ENTRIES c_com_1[1] c_com_1[2] c_com_1[3] c_com_2[1] c_com_2[2] c_com_2[3] c_vel_1[1] c_vel_1[2] c_vel_1[3] c_vel_2[1] c_vel_2[2] c_vel_2[3] c_q_1[1] c_q_1[2] c_q_1[3] c_q_1[4] c_q_2[1] c_q_2[2] c_q_2[3] c_q_2[4] c_av_1[1] c_av_1[2] c_av_1[3] c_av_2[1] c_av_2[2] c_av_2[3] c_am_1[1] c_am_1[2] c_am_1[3] c_am_2[1] c_am_2[2] c_am_2[3] c_i_1[1] c_i_1[2] c_i_1[3] c_i_2[1] c_i_2[2] c_i_2[3] 
-17.0444 22.8256 -31.8102 -15.1921 20.7234 -36.1976 0.311671 -0.601626 0.395011 0.85989 0.342349 -0.417543 0.69878 0.47205 -0.519582 0.137514 0.14054 -0.0376135 -0.865514 0.47929 1.02368 0.524209 0.0264677 -0.0876192 -0.597188 -2.55862 3.08242 1.98042 -0.595992 -0.906481 -1.36903 -7.83288 6 3 3 3 6 3 
ITEM: TIMESTEP
280000
ITEM: NUMBER OF ENTRIES
1
ITEM: BOX BOUNDS pp pp pp
-25 29
-25 25
-25 25
ITEM: ENTRIES c_com_1[1] c_com_1[2] c_com_1[3] c_com_2[1] c_com_2[2] c_com_2[3] c_vel_1[1] c_vel_1[2] c_vel_1[3] c_vel_2[1] c_vel_2[2] c_vel_2[3] c_q_1[1] c_q_1[2] c_q_1[3] c_q_1[4] c_q_2[1] c_q_2[2] c_q_2[3] c_q_2[4] c_av_1[1] c_av_1[2] c_av_1[3] c_av_2[1] c_av_2[2] c_av_2[3] c_am_1[1] c_am_1[2] c_am_1[3] c_am_2[1] c_am_2[2] c_am_2[3] c_i_1[1] c_i_1[2] c_i_1[3] c_i_2[1] c_i_2[2] c_i_2[3] 
-16.9986 22.7492 -31.8053 -15.1207 20.7739 -36.2048 0.605387 -0.922686 -0.296869 0.566174 0.663409 0.274338 0.69093 0.502202 -0.512208 0.0897393 0.158855 -0.0747443 -0.914446 0.364647 1.03513 0.501795 0.0112024 -0.133702 -0.645686 -2.54481 3.08242 1.98042 -0.595992 -0.906481 -1.36903 -7.83288 6 3 3 3 6 3 
ITEM: TIMESTEP
290000
ITEM: NUMBER OF ENTRIES
1
ITEM: BOX BOUNDS pp pp pp
-25 29
-25 25
-25 25
ITEM: ENTRIES c_com_1[1] c_com_1[2] c_com_1[3] c_com_2[1] c_com_2[2] c_com_2[3] c_vel_1[1] c_vel_1[2] c_vel_1[3] c_vel_2[1] c_vel_2[2] c_vel_2[3] c_q_1[1] c_q_1[2] c_q_1[3] c_q_1[4] c_q_2[1] c_q_2[2] c_q_2[3] c_q_2[4] c_av_1[1] c_av_1[2] c_av_1[3] c_av_2[1] c_av_2[2] c_av_2[3] c_am_1[1] c_am_1[2] c_am_1[3] c_am_2[1] c_am_2[2] c_am_2[3] c_i_1[1] c_i_1[2] c_i_1[3] c_i_2[1] c_i_2[2] c_i_2[3] 
-16.9235 22.642 -31.869 -15.0787 20.8552 -36.1433 0.894537 -1.21495 -0.970606 0.277024 0.95567 0.948075 0.681819 0.530289 -0.502196 0.0414142 0.17544 -0.113634 -0.94683 0.244585 1.04505 0.480889 -0.00699714 -0.19129 -0.680166 -2.53212 3.08242 1.98042 -0.595992 -0.906481 -1.36903 -7.83288 6 3 3 3 6 3 
ITEM: TIMESTEP
300000
ITEM: NUMBER OF ENTRIES
1
ITEM: BOX BOUNDS pp pp pp
-25 29
-25 25
-25 25
ITEM: ENTRIES c_com_1[1] c_com_1[2] c_com_1[3] c_com_2[1] c_com_2[2] c_com_2[3] c_vel_1[1] c_vel_1[2] c_vel_1[3] c_vel_2[1] c_vel_2[2] c_vel_2[3] c_q_1[1] c_q_1[2] c_q_1[3] c_q_1[4] c_q_2[1] c_q_2[2] c_q_2[3] c_q_2[4] c_av_1[1] c_av_1[2] c_av_1[3] c_av_2[1] c_av_2[2] c_av_2[3] c_am_1[1] c_am_1[2] c_am_1[3] c_am_2[1] c_am_2[2] c_am_2[3] c_i_1[1] c_i_1[2] c_i_1[3] c_i_2[1] c_i_2[2] c_i_2[3] 
-16.8203 22.5076 -31.9977 -15.0647 20.9636 -36.0169 1.16428 -1.46459 -1.59199 0.00728181 1.20531 1.56945 0.671494 0.556143 -0.48964 -0.00731781 0.189563 -0.153712 -0.962152 0.121253 1.05327 0.461812 -0.0278528 -0.25631 -0.698189 -2.52144 3.08242 1.98042 -0.595992 -0.906481 -1.36903 -7.83288 6 3 3 3 6 3 
ITEM: TIMESTEP
310000
ITEM: NUMBER OF ENTRIES
1
ITEM: BOX BOUNDS pp pp pp
-25 29
-25 25
-25 25
ITEM: ENTRIES c_com_1[1] c_com_1[2] c_com_1[3] c_com_2[1] c_com_2[2] c_com_2[3] c_vel_1[1] c_vel_1[2] c_vel_1[3] c_vel_2[1] c_vel_2[2] c_vel_2[3] c_q_1[1] c_q_1[2] c_q_1[3] c_q_1[4] c_q_2[1] c_q_2[2] c_q_2[3] c_q_2[4] c_av_1[1] c_av_1[2] c_av_1[3] c_av_2[1] c_av_2[2] c_av_2[3] c_am_1[1] c_am_1[2] c_am_1[3] c_am_2[1] c_am_2[2] c_am_2[3] c_i_1[1] c_i_1[2] c_i_1[3] c_i_2[1] c_i_2[2] c_i_2[3] 
-16.6918 22.3508 -32.1846 -15.0761 21.0945 -35.8323 1.40051 -1.66099 -2.12927 -0.22895 1.40171 2.10674 0.660001 0.579602 -0.474647 -0.05631 0.200526 -0.19433 -0.960216 -0.00315602 1.05968 0.444855 -0.0510457 -0.324162 -0.69848 -2.51354 3.08242 1.98042 -0.595992 -0.906481 -1.36903 -7.83288 6 3 3 3 6 3 
ITEM: TIMESTEP
320000
ITEM: NUMBER OF ENTRIES
1
ITEM: BOX BOUNDS pp pp pp
-25 29
-25 25
-25 25
ITEM: ENTRIES c_com_1[1] c_com_1[2] c_com_1[3] c_com_2[1] c_com_2[2] c_com_2[3] c_vel_1[1] c_vel_1[2] c_vel_1[3] c_vel_2[1] c_vel_2[2] c_vel_2[3] c_q_1[1] c_q_1[2] c_q_1[3] c_q_1[4] c_q_2[1] c_q_2[2] c_q_2[3] c_q_2[4] c_av_1[1] c_av_1[2] c_av_1[3] c_av_2[1] c_av_2[2] c_av_2[3] c_am_1[1] c_am_1[2] c_am_1[3] c_am_2[1] c_am_2[2] c_am_2[3] c_i_1[1] c_i_1[2] c_i_1[3] c_i_2[1] c_i_2[2] c_i_2[3] 
-16.5418 22.1774 -32.4198 -15.1089 21.242 -35.5993 1.5905 -1.79789 -2.55485 -0.418936 1.53861 2.53232 0.647386 0.600519 -0.457336 -0.105414 0.207686 -0.234773 -0.941148 -0.126447 1.06418 0.430278 -0.0762211 -0.390044 -0.681018 -2.50897 3.08242 1.98042 -0.595992 -0.906481 -1.36903 -7.83288 6 3 3 3 6 3 
ITEM: TIMESTEP
330000
ITEM: NUMBER OF ENTRIES
1
ITEM: BOX BOUNDS pp pp pp
-25 29
-25 25
-25 25
ITEM: ENTRIES c_com_1[1] c_com_1[2] c_com_1[3] c_com_2[1] c_com_2[2] c_com_2[3] c_vel_1[1] c_vel_1[2] c_vel_1[3] c_vel_2[1] c_vel_2[2] c_vel_2[3] c_q_1[1] c_q_1[2] c_q_1[3] c_q_1[4] c_q_2[1] c_q_2[2] c_q_2[3] c_q_2[4] c_av_1[1] c_av_1[2] c_av_1[3] c_av_2[1] c_av_2[2] c_av_2[3] c_am_1[1] c_am_1[2] c_am_1[3] c_am_2[1] c_am_2[2] c_am_2[3] c_i_1[1] c_i_1[2] c_i_1[3] c_i_2[1] c_i_2[2] c_i_2[3] 
-16.3756 21.9933 -32.6911 -15.158 21.4002 -35.3303 1.72336 -1.87507 -2.8467 -0.551795 1.61579 2.82417 0.633698 0.618757 -0.437839 -0.154478 0.210473 -0.274271 -0.90539 -0.246467 1.0667 0.418303 -0.102994 -0.449298 -0.647039 -2.50805 3.08242 1.98042 -0.595992 -0.906481 -1.36903 -7.83288 6 3 3 3 6 3 
ITEM: TIMESTEP
340000
ITEM: NUMBER OF ENTRIES
1
ITEM: BOX BOUNDS pp pp pp
-25 29
-25 25
-25 25
ITEM: ENTRIES c_com_1[1] c_com_1[2] c_com_1[3] c_com_2[1] c_com_2[2] c_com_2[3] c_vel_1[1] c_vel_1[2] c_vel_1[3] c_vel_2[1] c_vel_2[2] c_vel_2[3] c_q_1[1] c_q_1[2] c_q_1[3] c_q_1[4] c_q_2[1] c_q_2[2] c_q_2[3] c_q_2[4] c_av_1[1] c_av_1[2] c_av_1[3] c_av_2[1] c_av_2[2] c_av_2[3] c_am_1[1] c_am_1[2] c_am_1[3] c_am_2[1] c_am_2[2] c_am_2[3] c_i_1[1] c_i_1[2] c_i_1[3] c_i_2[1] c_i_2[2] c_i_2[3] 
-16.2109 21.8038 -32.9643 -15.2055 21.5637 -35.0593 0.847548 -1.98064 -1.4223 0.324013 1.72136 1.39977 0.623643 0.633681 -0.412316 -0.198781 0.196751 -0.326573 -0.853079 -0.356224 0.786336 -0.720864 -0.559458 -2.14963 2.12188 -2.91418 2.63966 -4.03402 -1.1639 -4.7629 7.58593 -9.69743 6 3 3 3 6 3 
ITEM: TIMESTEP
350000
ITEM: NUMBER OF ENTRIES
1
ITEM: BOX BOUNDS pp pp pp
-25 29
-25 25
-25 25
ITEM: ENTRIES c_com_1[1] c_com_1[2] c_com_1[3] c_com_2[1] c_com_2[2] c_com_2[3] c_vel_1[1] c_vel_1[2] c_vel_1[3] c_vel_2[1] c_vel_2[2] c_vel_2[3] c_q_1[1] c_q_1[2] c_q_1[3] c_q_1[4] c_q_2[1] c_q_2[2] c_q_2[3] c_q_2[4] c_av_1[1] c_av_1[2] c_av_1[3] c_av_2[1] c_av_2[2] c_av_2[3] c_am_1[1] c_am_1[2] c_am_1[3] c_am_2[1] c_am_2[2] c_am_2[3] c_i_1[1] c_i_1[2] c_i_1[3] c_i_2[1] c_i_2[2] c_i_2[3] 
-16.1919 21.5858 -33.0101 -15.1073 21.7558 -35.0158 0.127584 -2.20901 -0.37911 1.04398 1.94974 0.356579 0.679861 0.621979 -0.338161 -0.191255 0.0177196 -0.560167 -0.745796 -0.360122 0.571399 -1.50955 -1.14493 -3.43882 4.81831 -2.83804 1.72305 -8.09522 -2.62318 -8.705 14.782 -10.8945 6 3 3 3 6 3 
ITEM: TIMESTEP
360000
ITEM: NUMBER OF ENTRIES
1
ITEM: BOX BOUNDS pp pp pp
-25 29
-25 25
-25 25
ITEM: ENTRIES c_com_1[1] c_com_1[2] c_com_1[3] c_com_2[1] c_com_2[2] c_com_2[3] c_vel_1[1] c_vel_1[2] c_vel_1[3] c_vel_2[1] c_vel_2[2] c_vel_2[3] c_q_1[1] c_q_1[2] c_q_1[3] c_q_1[4] c_q_2[1] c_q_2[2] c_q_2[3] c_q_2[4] c_av_1[1] c_av_1[2] c_av_1[3] c_av_2[1] c_av_2[2] c_av_2[3] c_am_1[1] c_am_1[2] c_am_1[3] c_am_2[1] c_am_2[2] c_am_2[3] c_i_1[1] c_i_1[2] c_i_1[3] c_i_2[1] c_i_2[2] c_i_2[3] 
-16.1774 21.3654 -33.0511 -15.0047 21.9503 -34.977 0.15071 -2.19303 -0.426433 1.02085 1.93376 0.403901 0.729949 0.606859 -0.254557 -0.184656 -0.184612 -0.739902 -0.57351 -0.29925 0.735366 -1.49201 -1.05699 -2.92901 5.18112 -2.68623 1.72113 -8.02673 -2.6365 -8.58702 14.7611 -10.7972 6 3 3 3 6 3 
ITEM: TIMESTEP
370000
ITEM: NUMBER OF ENTRIES
1
ITEM: BOX BOUNDS pp pp pp
-25 29
-25 25
-25 25
ITEM: ENTRIES c_com_1[1] c_com_1[2] c_com_1[3] c_com_2[1] c_com_2[2] c_com_2[3] c_vel_1[1] c_vel_1[2] c_vel_1[3] c_vel_2[1] c_vel_2[2] c_vel_2[3] c_q_1[1] c_q_1[2] c_q_1[3] c_q_1[4] c_q_2[1] c_q_2[2] c_q_2[3] c_q_2[4] c_av_1[1] c_av_1[2] c_av_1[3] c_av_2[1] c_av_2[2] c_av_2[3] c_am_1[1] c_am_1[2] c_am_1[3] c_am_2[1] c_am_2[2] c_am_2[3] c_i_1[1] c_i_1[2] c_i_1[3] c_i_2[1] c_i_2[2] c_i_2[3] 
-16.2293 21.1418 -33.0339 -14.8356 22.148 -34.9965 -1.06586 -2.31369 0.597844 2.23742 2.05441 -0.620375 0.774677 0.571132 -0.199884 -0.183655 -0.367596 -0.817255 -0.410436 -0.168852 -0.133166 -0.369951 -1.4996 -1.00473 5.18297 -1.485 -0.592529 -1.80084 -4.42677 -2.47191 16.0098 -3.52235 6 3 3 3 6 3 
ITEM: TIMESTEP
380000
ITEM: NUMBER OF ENTRIES
1
ITEM: BOX BOUNDS pp pp pp
-25 29
-25 25
-25 25
ITEM: ENTRIES c_com_1[1] c_com_1[2] c_com_1[3] c_com_2[1] c_com_2[2] c_com_2[3] c_vel_1[1] c_vel_1[2] c_vel_1[3] c_vel_2[1] c_vel_2[2] c_vel_2[3] c_q_1[1] c_q_1[2] c_q_1[3] c_q_1[4] c_q_2[1] c_q_2[2] c_q_2[3] c_q_2[4] c_av_1[1] c_av_1[2] c_av_1[3] c_av_2[1] c_av_2[2] c_av_2[3] c_am_1[1] c_am_1[2] c_am_1[3] c_am_2[1] c_am_2[2] c_am_2[3] c_i_1[1] c_i_1[2] c_i_1[3] c_i_2[1] c_i_2[2] c_i_2[3] 
-16.3309 20.9143 -32.9809 -14.6169 22.3495 -35.0517 -0.952022 -2.22294 0.448897 2.12358 1.96367 -0.471428 0.819993 0.513546 -0.174493 -0.182851 -0.507084 -0.826309 -0.245102 -0.00193342 -0.102458 -0.379594 -1.50096 -1.1521 5.19523 -1.32996 -0.601857 -1.78693 -4.43252 -2.46797 16.0173 -3.5093 6 3 3 3 6 3 
ITEM: TIMESTEP
390000
ITEM: NUMBER OF ENTRIES
1
ITEM: BOX BOUNDS pp pp pp
-25 29
-25 25
-25 25
ITEM: ENTRIES c_com_1[1] c_com_1[2] c_com_1[3] c_com_2[1] c_com_2[2] c_com_2[3] c_vel_1[1] c_vel_1[2] c_vel_1[3] c_vel_2[1] c_vel_2[2] c_vel_2[3] c_q_1[1] c_q_1[2] c_q_1[3] c_q_1[4] c_q_2[1] c_q_2[2] c_q_2[3] c_q_2[4] c_av_1[1] c_av_1[2] c_av_1[3] c_av_2[1] c_av_2[2] c_av_2[3] c_am_1[1] c_am_1[2] c_am_1[3] c_am_2[1] c_am_2[2] c_am_2[3] c_i_1[1] c_i_1[2] c_i_1[3] c_i_2[1] c_i_2[2] c_i_2[3] 
-16.4175 20.6995 -32.946 -14.4132 22.5383 -35.0888 -0.768474 -2.06108 0.24133 1.94003 1.8018 -0.263861 0.860165 0.453355 -0.146604 -0.181912 -0.601313 -0.779549 -0.0566593 0.165876 -0.0704318 -0.396944 -1.49832 -1.19903 5.23268 -1.12602 -0.601857 -1.78693 -4.43252 -2.46797 16.0173 -3.5093 6 3 3 3 6 3 
ITEM: TIMESTEP
400000
ITEM: NUMBER OF ENTRIES
1
ITEM: BOX BOUNDS pp pp pp
-25 29
-25 25
-25 25
ITEM: ENTRIES c_com_1[1] c_com_1[2] c_com_1[3] c_com_2[1] c_com_2[2] c_com_2[3] c_vel_1[1] c_vel_1[2] c_vel_1[3] c_vel_2[1] c_vel_2[2] c_vel_2[3] c_q_1[1] c_q_1[2] c_q_1[3] c_q_1[4] c_q_2[1] c_q_2[2] c_q_2[3] c_q_2[4] c_av_1[1] c_av_1[2] c_av_1[3] c_av_2[1] c_av_2[2] c_av_2[3] c_am_1[1] c_am_1[2] c_am_1[3] c_am_2[1] c_am_2[2] c_am_2[3] c_i_1[1] c_i_1[2] c_i_1[3] c_i_2[1] c_i_2[2] c_i_2[3] 
-16.4825 20.5045 -32.9341 -14.231 22.7074 -35.1031 -0.522624 -1.82744 -0.0074945 1.69419 1.56817 -0.0150369 0.894944 0.391002 -0.11633 -0.180722 -0.642577 -0.680333 0.13873 0.324031 -0.0415266 -0.418731 -1.49346 -1.13138 5.2857 -0.931582 -0.601857 -1.78693 -4.43252 -2.46797 16.0173 -3.5093 6 3 3 3 6 3 
ITEM: TIMESTEP
410000
ITEM: NUMBER OF ENTRIES
1
ITEM: BOX BOUNDS pp pp pp
-25 29
-25 25
-25 25
ITEM: ENTRIES c_com_1[1] c_com_1[2] c_com_1[3] c_com_2[1] c_com_2[2] c_com_2[3] c_vel_1[1] c_vel_1[2] c_vel_1[3] c_vel_2[1] c_vel_2[2] c_vel_2[3] c_q_1[1] c_q_1[2] c_q_1[3] c_q_1[4] c_q_2[1] c_q_2[2] c_q_2[3] c_q_2[4] c_av_1[1] c_av_1[2] c_av_1[3] c_av_2[1] c_av_2[2] c_av_2[3] c_am_1[1] c_am_1[2] c_am_1[3] c_am_2[1] c_am_2[2] c_am_2[3] c_i_1[1] c_i_1[2] c_i_1[3] c_i_2[1] c_i_2[2] c_i_2[3] 
-16.5202 20.3362 -32.9484 -14.0761 22.8498 -35.091 -0.224451 -1.52786 -0.281128 1.39601 1.26858 0.258596 0.924117 0.326934 -0.0838161 -0.179155 -0.627817 -0.535576 0.324163 0.462517 -0.0164865 -0.444392 -1.48651 -0.969309 5.33851 -0.804544 -0.601857 -1.78693 -4.43252 -2.46797 16.0173 -3.5093 6 3 3 3 6 3 
ITEM: TIMESTEP
420000
ITEM: NUMBER OF ENTRIES
1
ITEM: BOX BOUNDS pp pp pp
-25 29
-25 25
-25 25
ITEM: ENTRIES c_com_1[1] c_com_1[2] c_com_1[3] c_com_2[1] c_com_2[2] c_com_2[3] c_vel_1[1] c_vel_1[2] c_vel_1[3] c_vel_2[1] c_vel_2[2] c_vel_2[3] c_q_1[1] c_q_1[2] c_q_1[3] c_q_1[4] c_q_2[1] c_q_2[2] c_q_2[3] c_q_2[4] c_av_1[1] c_av_1[2] c_av_1[3] c_av_2[1] c_av_2[2] c_av_2[3] c_am_1[1] c_am_1[2] c_am_1[3] c_am_2[1] c_am_2[2] c_am_2[3] c_i_1[1] c_i_1[2] c_i_1[3] c_i_2[1] c_i_2[2] c_i_2[3] 
-16.5261 20.2008 -32.9906 -13.9531 22.9593 -35.0511 0.112413 -1.17383 -0.56325 1.05915 0.914553 0.540719 0.947512 0.261607 -0.049231 -0.177087 -0.55886 -0.355261 0.483468 0.572472 0.00404444 -0.473268 -1.47766 -0.761078 5.37537 -0.782741 -0.601857 -1.78693 -4.43252 -2.46797 16.0173 -3.5093 6 3 3 3 6 3 
ITEM: TIMESTEP
430000
ITEM: NUMBER OF ENTRIES
1
ITEM: BOX BOUNDS pp pp pp
-25 29
-25 25
-25 25
ITEM: ENTRIES c_com_1[1] c_com_1[2] c_com_1[3] c_com_2[1] c_com_2[2] c_com_2[3] c_vel_1[1] c_vel_1[2] c_vel_1[3] c_vel_2[1] c_vel_2[2] c_vel_2[3] c_q_1[1] c_q_1[2] c_q_1[3] c_q_1[4] c_q_2[1] c_q_2[2] c_q_2[3] c_q_2[4] c_av_1[1] c_av_1[2] c_av_1[3] c_av_2[1] c_av_2[2] c_av_2[3] c_am_1[1] c_am_1[2] c_am_1[3] c_am_2[1] c_am_2[2] c_am_2[3] c_i_1[1] c_i_1[2] c_i_1[3] c_i_2[1] c_i_2[2] c_i_2[3] 
-16.497 20.1028 -33.0608 -13.865 23.0314 -34.9831 0.471867 -0.781057 -0.838268 0.699694 0.52178 0.815736 0.964994 0.195478 -0.0127685 -0.17439 -0.442217 -0.151743 0.602608 0.646747 0.019538 -0.504617 -1.46712 -0.568701 5.38531 -0.872668 -0.601857 -1.78693 -4.43252 -2.46797 16.0173 -3.5093 6 3 3 3 6 3 
ITEM: TIMESTEP
440000
ITEM: NUMBER OF ENTRIES
1
ITEM: BOX BOUNDS pp pp pp
-25 29
-25 25
-25 25
ITEM: ENTRIES c_com_1[1] c_com_1[2] c_com_1[3] c_com_2[1] c_com_2[2] c_com_2[3] c_vel_1[1] c_vel_1[2] c_vel_1[3] c_vel_2[1] c_vel_2[2] c_vel_2[3] c_q_1[1] c_q_1[2] c_q_1[3] c_q_1[4] c_q_2[1] c_q_2[2] c_q_2[3] c_q_2[4] c_av_1[1] c_av_1[2] c_av_1[3] c_av_2[1] c_av_2[2] c_av_2[3] c_am_1[1] c_am_1[2] c_am_1[3] c_am_2[1] c_am_2[2] c_am_2[3] c_i_1[1] c_i_1[2] c_i_1[3] c_i_2[1] c_i_2[2] c_i_2[3] 
-16.4315 20.0452 -33.1575 -13.8133 23.063 -34.8886 0.836426 -0.368164 -1.09196 0.335135 0.108887 1.06943 0.97647 0.129008 0.0253556 -0.17094 -0.288489 0.0611116 0.670918 0.680373 0.0295957 -0.537631 -1.45518 -0.449471 5.36537 -1.04754 -0.601857 -1.78693 -4.43252 -2.46797 16.0173 -3.5093 6 3 3 3 6 3 
ITEM: TIMESTEP
450000
ITEM: NUMBER OF ENTRIES
1
ITEM: BOX BOUNDS pp pp pp
-25 29
-25 25
-25 25
ITEM: ENTRIES c_com_1[1] c_com_1[2] c_com_1[3] c_com_2[1] c_com_2[2] c_com_2[3] c_vel_1[1] c_vel_1[2] c_vel_1[3] c_vel_2[1] c_vel_2[2] c_vel_2[3] c_q_1[1] c_q_1[2] c_q_1[3] c_q_1[4] c_q_2[1] c_q_2[2] c_q_2[3] c_q_2[4] c_av_1[1] c_av_1[2] c_av_1[3] c_av_2[1] c_av_2[2] c_av_2[3] c_am_1[1] c_am_1[2] c_am_1[3] c_am_2[1] c_am_2[2] c_am_2[3] c_i_1[1] c_i_1[2] c_i_1[3] c_i_2[1] c_i_2[2] c_i_2[3] 
-16.3301 20.0291 -33.278 -13.7976 23.0532 -34.7703 1.18828 0.0445237 -1.31222 -0.0167216 -0.303801 1.28968 0.981887 0.0626503 0.0649037 -0.166614 -0.111411 0.268876 0.68205 0.670896 0.0339586 -0.571462 -1.44213 -0.438896 5.32148 -1.25528 -0.601857 -1.78693 -4.43252 -2.46797 16.0173 -3.5093 6 3 3 3 6 3 
ITEM: TIMESTEP
460000
ITEM: NUMBER OF ENTRIES
1
ITEM: BOX BOUNDS pp pp pp
-25 29
-25 25
-25 25
ITEM: ENTRIES c_com_1[1] c_com_1[2] c_com_1[3] c_com_2[1] c_com_2[2] c_com_2[3] c_vel_1[1] c_vel_1[2] c_vel_1[3] c_vel_2[1] c_vel_2[2] c_vel_2[3] c_q_1[1] c_q_1[2] c_q_1[3] c_q_1[4] c_q_2[1] c_q_2[2] c_q_2[3] c_q_2[4] c_av_1[1] c_av_1[2] c_av_1[3] c_av_2[1] c_av_2[2] c_av_2[3] c_am_1[1] c_am_1[2] c_am_1[3] c_am_2[1] c_am_2[2] c_am_2[3] c_i_1[1] c_i_1[2] c_i_1[3] c_i_2[1] c_i_2[2] c_i_2[3] 
-16.1949 20.0534 -33.4185 -13.8156 23.003 -34.6321 1.51036 0.436161 -1.48977 -0.338803 -0.695438 1.46724 0.981233 -0.00314466 0.105619 -0.161296 0.0733661 0.457551 0.63455 0.618555 0.0325147 -0.605238 -1.42832 -0.540125 5.26672 -1.43402 -0.601857 -1.78693 -4.43252 -2.46797 16.0173 -3.5093 6 3 3 3 6 3 
ITEM: TIMESTEP
470000
ITEM: NUMBER OF ENTRIES
1
ITEM: BOX BOUNDS pp pp pp
-25 29
-25 25
-25 25
ITEM: ENTRIES c_com_1[1] c_com_1[2] c_com_1[3] c_com_2[1] c_com_2[2] c_com_2[3] c_vel_1[1] c_vel_1[2] c_vel_1[3] c_vel_2[1] c_vel_2[2] c_vel_2[3] c_q_1[1] c_q_1[2] c_q_1[3] c_q_1[4] c_q_2[1] c_q_2[2] c_q_2[3] c_q_2[4] c_av_1[1] c_av_1[2] c_av_1[3] c_av_2[1] c_av_2[2] c_av_2[3] c_am_1[1] c_am_1[2] c_am_1[3] c_am_2[1] c_am_2[2] c_am_2[3] c_i_1[1] c_i_1[2] c_i_1[3] c_i_2[1] c_i_2[2] c_i_2[3] 