ITEM: TIMESTEP
100000
ITEM: NUMBER OF ATOMS
14
ITEM: BOX BOUNDS pp pp pp
-2.5000000000000000e+01 2.9000000000000000e+01
-2.5000000000000000e+01 2.5000000000000000e+01
-2.5000000000000000e+01 2.5000000000000000e+01
ITEM: ATOMS id type x y z 
10 1 -17.8566 19.7679 14.86 
9 1 -18.4996 19.2446 15.4192 
11 1 -16.9086 19.8778 15.1587 
1 1 -16.4117 23.9775 15.6075 
6 1 -16.0679 24.9158 15.5704 
5 1 -16.3327 -24.4264 16.2754 
8 1 -18.1946 18.8312 16.2772 
14 1 -17.5516 19.3545 15.7179 
12 1 -16.6036 19.4644 16.0166 
2 1 -17.0204 23.697 16.3496 
7 1 -16.6765 24.6353 16.3125 
4 1 -16.9414 -24.7069 17.0176 
13 1 -17.2466 18.9412 16.5759 
3 1 -17.2852 24.3548 17.0547 
ITEM: TIMESTEP
110000
ITEM: NUMBER OF ATOMS
14
ITEM: BOX BOUNDS pp pp pp
-2.5000000000000000e+01 2.9000000000000000e+01
-2.5000000000000000e+01 2.5000000000000000e+01
-2.5000000000000000e+01 2.5000000000000000e+01
ITEM: ATOMS id type x y z 
10 1 -17.8454 19.7809 14.8198 
9 1 -18.4307 19.2045 15.39 
14 1 -17.4897 19.3939 15.6705 
11 1 -16.9044 19.9703 15.1003 
1 1 -16.345 23.9624 15.6131 
6 1 -15.9815 24.8927 15.6602 
5 1 -16.2577 -24.4996 16.4049 
8 1 -18.0751 18.8175 16.2407 
12 1 -16.5487 19.5833 15.951 
2 1 -16.9848 23.6396 16.3106 
7 1 -16.6213 24.57 16.3577 
4 1 -16.8975 -24.8224 17.1023 
13 1 -17.1341 19.0069 16.5213 
3 1 -17.2611 24.2472 17.0552 
ITEM: TIMESTEP
120000
ITEM: NUMBER OF ATOMS
14
ITEM: BOX BOUNDS pp pp pp
-2.5000000000000000e+01 2.9000000000000000e+01
-2.5000000000000000e+01 2.5000000000000000e+01
-2.5000000000000000e+01 2.5000000000000000e+01
ITEM: ATOMS id type x y z 
10 1 -17.8191 19.8745 14.7932 
9 1 -18.3417 19.2484 15.372 
14 1 -17.4141 19.515 15.634 
11 1 -16.8915 20.1411 15.0552 
1 1 -16.2923 23.8693 15.6104 
8 1 -17.9367 18.889 16.2127 
12 1 -16.4866 19.7816 15.8959 
2 1 -16.9601 23.5074 16.2608 
7 1 -16.5797 24.4229 16.392 
6 1 -15.9119 24.7847 15.7416 
5 1 -16.1993 -24.6617 16.5232 
13 1 -17.0092 19.1556 16.4747 
3 1 -17.2476 24.061 17.0424 
4 1 -16.8672 -25.0235 17.1736 
ITEM: TIMESTEP
130000
ITEM: NUMBER OF ATOMS
14
ITEM: BOX BOUNDS pp pp pp
-2.5000000000000000e+01 2.9000000000000000e+01
-2.5000000000000000e+01 2.5000000000000000e+01
-2.5000000000000000e+01 2.5000000000000000e+01
ITEM: ATOMS id type x y z 
10 1 -17.7788 20.042 14.7811 
9 1 -18.2338 19.3703 15.3657 
14 1 -17.3257 19.7114 15.609 
11 1 -16.8707 20.3831 15.0243 
1 1 -16.2525 23.7049 15.5991 
8 1 -17.7807 19.0397 16.1936 
12 1 -16.4177 20.0524 15.8523 
2 1 -16.9454 23.307 16.2005 
7 1 -16.5509 24.2006 16.4147 
6 1 -15.8581 24.5985 15.8133 
5 1 -16.1565 -24.9058 16.6289 
13 1 -16.8727 19.3807 16.4369 
3 1 -17.2438 23.8028 17.0161 
4 1 -16.8494 24.6964 17.2303 
ITEM: TIMESTEP
140000
ITEM: NUMBER OF ATOMS
14
ITEM: BOX BOUNDS pp pp pp
-2.5000000000000000e+01 2.9000000000000000e+01
-2.5000000000000000e+01 2.5000000000000000e+01
-2.5000000000000000e+01 2.5000000000000000e+01
ITEM: ATOMS id type x y z 
10 1 -17.7261 20.273 14.7833 
9 1 -18.1091 19.5602 15.3709 
14 1 -17.2262 19.9725 15.5956 
11 1 -16.8431 20.6852 15.008 
1 1 -16.2242 23.4795 15.5797 
8 1 -17.6092 19.2597 16.1832 
13 1 -16.7263 19.672 16.4079 
12 1 -16.3433 20.3847 15.8203 
2 1 -16.939 23.0486 16.1305 
7 1 -16.5333 23.9136 16.4258 
6 1 -15.8185 24.3445 15.8751 
3 1 -17.2482 23.4827 16.9766 
5 1 -16.1277 24.7786 16.7212 
4 1 -16.8425 24.3477 17.272 
ITEM: TIMESTEP
150000
ITEM: NUMBER OF ATOMS
14
ITEM: BOX BOUNDS pp pp pp
-2.5000000000000000e+01 2.9000000000000000e+01
-2.5000000000000000e+01 2.5000000000000000e+01
-2.5000000000000000e+01 2.5000000000000000e+01
ITEM: ATOMS id type x y z 
10 1 -17.6631 20.5537 14.7992 
9 1 -17.9704 19.8049 15.3865 
14 1 -17.1177 20.2847 15.593 
11 1 -16.8104 21.0335 15.0057 
1 1 -16.205 23.2066 15.5535 
8 1 -17.4249 19.5359 16.1803 
13 1 -16.5722 20.0157 16.3868 
12 1 -16.2649 20.7645 15.7995 
2 1 -16.9389 22.7456 16.0524 
7 1 -16.5247 23.5755 16.4262 
6 1 -15.7909 24.0365 15.9273 
3 1 -17.2586 23.1144 16.9251 
5 1 -16.1106 24.4053 16.8001 
4 1 -16.8444 23.9443 17.299 
ITEM: TIMESTEP
160000
ITEM: NUMBER OF ATOMS
14
ITEM: BOX BOUNDS pp pp pp
-2.5000000000000000e+01 2.9000000000000000e+01
-2.5000000000000000e+01 2.5000000000000000e+01
-2.5000000000000000e+01 2.5000000000000000e+01
ITEM: ATOMS id type x y z 
10 1 -17.5925 20.868 14.8268 
9 1 -17.8208 20.0887 15.4104 
14 1 -17.0028 20.632 15.5992 
11 1 -16.7745 21.4113 15.0155 
1 1 -16.1925 22.902 15.5228 
8 1 -17.2311 19.8527 16.1828 
13 1 -16.4131 20.3961 16.3715 
12 1 -16.1848 21.1754 15.7879 
2 1 -16.9424 22.4135 15.9688 
7 1 -16.5224 23.2022 16.4178 
6 1 -15.7725 23.6907 15.9718 
3 1 -17.2724 22.7137 16.8638 
5 1 -16.1024 23.9909 16.8668 
4 1 -16.8523 23.5023 17.3128 
ITEM: TIMESTEP
170000
ITEM: NUMBER OF ATOMS
14
ITEM: BOX BOUNDS pp pp pp
-2.5000000000000000e+01 2.9000000000000000e+01
-2.5000000000000000e+01 2.5000000000000000e+01
-2.5000000000000000e+01 2.5000000000000000e+01
ITEM: ATOMS id type x y z 
10 1 -17.5153 21.195 14.8594 
9 1 -17.665 20.3946 15.44 
14 1 -16.8835 20.9954 15.6084 
11 1 -16.7339 21.7958 15.0277 
1 1 -16.1873 22.5832 15.4934 
8 1 -17.0331 20.1951 16.189 
13 1 -16.2516 20.7959 16.3573 
2 1 -16.9509 22.0718 15.8876 
12 1 -16.102 21.5963 15.7767 
7 1 -16.5246 22.8128 16.4064 
6 1 -15.761 23.3242 16.0122 
3 1 -17.2882 22.3014 16.8005 
5 1 -16.0982 23.5539 16.9251 
4 1 -16.8619 23.0425 17.3193 
ITEM: TIMESTEP
180000
ITEM: NUMBER OF ATOMS
14
ITEM: BOX BOUNDS pp pp pp
-2.5000000000000000e+01 2.9000000000000000e+01
-2.5000000000000000e+01 2.5000000000000000e+01
-2.5000000000000000e+01 2.5000000000000000e+01
ITEM: ATOMS id type x y z 
10 1 -17.3552 21.3491 14.8025 
11 1 -16.4612 21.7967 14.8203 
9 1 -17.6065 20.7052 15.5251 
14 1 -16.7125 21.1528 15.5429 
12 1 -15.8184 21.6004 15.5607 
1 1 -16.4022 22.7041 15.488 
8 1 -16.9637 20.5088 16.2655 
13 1 -16.0697 20.9564 16.2834 
2 1 -17.136 22.1117 15.8207 
6 1 -15.8447 23.222 16.1369 
3 1 -17.3122 22.0372 16.8022 
7 1 -16.5784 22.6296 16.4695 
5 1 -16.0209 23.1474 17.1184 
4 1 -16.7547 22.555 17.4511 
ITEM: TIMESTEP
190000
ITEM: NUMBER OF ATOMS
14
ITEM: BOX BOUNDS pp pp pp
-2.5000000000000000e+01 2.9000000000000000e+01
-2.5000000000000000e+01 2.5000000000000000e+01
-2.5000000000000000e+01 2.5000000000000000e+01
ITEM: ATOMS id type x y z 
10 1 -17.1594 21.3785 14.6995 
11 1 -16.1747 21.4746 14.5546 
9 1 -17.5065 21.0652 15.5834 
14 1 -16.5218 21.1612 15.4385 
12 1 -15.537 21.2573 15.2936 
8 1 -16.8689 20.8479 16.3224 
13 1 -15.8841 20.9439 16.1775 
2 1 -17.3862 22.441 15.9106 
1 1 -16.7161 23.1664 15.7534 
6 1 -15.9818 23.3206 16.4145 
3 1 -17.3221 21.8698 16.7289 
7 1 -16.652 22.5952 16.5717 
4 1 -16.5879 22.024 17.39 
5 1 -15.9178 22.7494 17.2329 
ITEM: TIMESTEP
200000
ITEM: NUMBER OF ATOMS
14
ITEM: BOX BOUNDS pp pp pp
-2.5000000000000000e+01 2.9000000000000000e+01
-2.5000000000000000e+01 2.5000000000000000e+01
-2.5000000000000000e+01 2.5000000000000000e+01
ITEM: ATOMS id type x y z 
10 1 -16.9539 21.4069 14.5895 
11 1 -16.0203 21.118 14.3772 
9 1 -17.2601 21.4492 15.5405 
14 1 -16.3266 21.1604 15.3282 
12 1 -15.393 20.8715 15.116 
8 1 -16.6328 21.2027 16.2792 
13 1 -15.6993 20.9138 16.067 
2 1 -17.5948 22.6936 16.1931 
1 1 -16.97 23.4661 16.306 
3 1 -17.3548 21.7976 16.5668 
4 1 -16.49 21.6742 17.0534 
7 1 -16.73 22.5702 16.6797 
6 1 -16.1052 23.3427 16.7927 
5 1 -15.8652 22.4468 17.1664 
ITEM: TIMESTEP
210000
ITEM: NUMBER OF ATOMS
14
ITEM: BOX BOUNDS pp pp pp
-2.5000000000000000e+01 2.9000000000000000e+01
-2.5000000000000000e+01 2.5000000000000000e+01
-2.5000000000000000e+01 2.5000000000000000e+01
ITEM: ATOMS id type x y z 
11 1 -15.8649 20.8774 14.1165 
12 1 -15.3133 20.5139 14.8673 
10 1 -16.6771 21.4267 14.3132 
14 1 -16.1255 21.0632 15.0639 
9 1 -16.9377 21.6125 15.2606 
8 1 -16.3861 21.249 16.0113 
13 1 -15.5739 20.6997 15.8147 
3 1 -17.4455 21.8951 16.7316 
4 1 -16.5333 21.6928 17.0879 
2 1 -17.7261 22.8437 16.5855 
7 1 -16.8139 22.6414 16.9418 
6 1 -16.1824 23.3877 17.1519 
1 1 -17.0946 23.59 16.7956 
5 1 -15.9017 22.4391 17.2981 
ITEM: TIMESTEP
220000
ITEM: NUMBER OF ATOMS
14
ITEM: BOX BOUNDS pp pp pp
-2.5000000000000000e+01 2.9000000000000000e+01
-2.5000000000000000e+01 2.5000000000000000e+01
-2.5000000000000000e+01 2.5000000000000000e+01
ITEM: ATOMS id type x y z 
10 1 -16.3505 21.4273 13.9849 
11 1 -15.7034 20.6839 13.8156 
12 1 -15.2826 20.2025 14.5845 
14 1 -15.9297 20.9459 14.7538 
9 1 -16.5768 21.6893 14.923 
13 1 -15.509 20.4644 15.5226 
8 1 -16.1561 21.2078 15.6919 
3 1 -17.5352 22.0044 17.012 
2 1 -17.8266 22.9602 16.9745 
1 1 -17.184 23.6886 17.2122 
4 1 -16.6011 21.7769 17.2872 
7 1 -16.8926 22.7328 17.2497 
5 1 -15.9585 22.5053 17.5249 
6 1 -16.2499 23.4612 17.4874 
ITEM: TIMESTEP
230000
ITEM: NUMBER OF ATOMS
14
ITEM: BOX BOUNDS pp pp pp
-2.5000000000000000e+01 2.9000000000000000e+01
-2.5000000000000000e+01 2.5000000000000000e+01
-2.5000000000000000e+01 2.5000000000000000e+01
ITEM: ATOMS id type x y z 
11 1 -15.5644 20.5227 13.5383 
10 1 -16.0025 21.4098 13.6838 
12 1 -15.3052 19.9586 14.3222 
14 1 -15.7432 20.8456 14.4677 
9 1 -16.1813 21.7327 14.6131 
13 1 -15.484 20.2815 15.2516 
8 1 -15.9221 21.1686 15.397 
3 1 -17.6166 22.0993 17.2681 
4 1 -16.6664 21.8545 17.4609 
7 1 -16.9619 22.8071 17.5335 
5 1 -16.0116 22.5623 17.7263 
2 1 -17.9121 23.0519 17.3408 
6 1 -16.3072 23.5148 17.7989 
1 1 -17.2574 23.7596 17.6062 
ITEM: TIMESTEP
240000
ITEM: NUMBER OF ATOMS
14
ITEM: BOX BOUNDS pp pp pp
-2.5000000000000000e+01 2.9000000000000000e+01
-2.5000000000000000e+01 2.5000000000000000e+01
-2.5000000000000000e+01 2.5000000000000000e+01
ITEM: ATOMS id type x y z 
11 1 -15.4485 20.4018 13.297 
10 1 -15.6485 21.3731 13.4255 
12 1 -15.3716 19.7979 14.0904 
14 1 -15.5716 20.7692 14.2189 
9 1 -15.7717 21.7405 14.3474 
13 1 -15.4947 20.1653 15.0122 
8 1 -15.6948 21.1366 15.1408 
4 1 -16.7235 21.919 17.5972 
3 1 -17.6843 22.1735 17.4871 
7 1 -17.0163 22.8576 17.7801 
2 1 -17.9772 23.112 17.67 
5 1 -16.0555 22.6032 17.8901 
6 1 -16.3484 23.5417 18.073 
1 1 -17.3092 23.7961 17.9629 
ITEM: TIMESTEP
250000
ITEM: NUMBER OF ATOMS
14
ITEM: BOX BOUNDS pp pp pp
-2.5000000000000000e+01 2.9000000000000000e+01
-2.5000000000000000e+01 2.5000000000000000e+01
-2.5000000000000000e+01 2.5000000000000000e+01
ITEM: ATOMS id type x y z 
11 1 -15.3556 20.326 13.1031 
10 1 -15.3054 21.3173 13.2243 
12 1 -15.4701 19.7302 13.898 
14 1 -15.4199 20.7216 14.0192 
9 1 -15.3697 21.7129 14.1404 
13 1 -15.5344 20.1258 14.8142 
8 1 -15.4842 21.1172 14.9354 
4 1 -16.7672 21.9657 17.686 
3 1 -17.7334 22.2221 17.6576 
5 1 -16.0847 22.6229 18.0059 
2 1 -18.017 23.1357 17.949 
7 1 -17.0509 22.8793 17.9775 
6 1 -16.3684 23.5365 18.2973 
1 1 -17.3345 23.7929 18.2689 
ITEM: TIMESTEP
260000
ITEM: NUMBER OF ATOMS
14
ITEM: BOX BOUNDS pp pp pp
-2.5000000000000000e+01 2.9000000000000000e+01
-2.5000000000000000e+01 2.5000000000000000e+01
-2.5000000000000000e+01 2.5000000000000000e+01
ITEM: ATOMS id type x y z 
11 1 -15.2859 20.2968 12.9657 
10 1 -14.9906 21.2439 13.0912 
12 1 -15.5878 19.7588 13.7527 
14 1 -15.2924 20.7059 13.8782 
9 1 -14.997 21.653 14.0037 
13 1 -15.5942 20.1678 14.6652 
8 1 -15.2988 21.1149 14.7907 
4 1 -16.793 21.9913 17.7193 
3 1 -17.7596 22.2423 17.7706 
5 1 -16.0947 22.618 18.065 
2 1 -18.0279 23.1201 18.1675 
7 1 -17.0613 22.8691 18.1162 
6 1 -16.3629 23.4958 18.4619 
1 1 -17.3295 23.7468 18.5132 
ITEM: TIMESTEP
270000
ITEM: NUMBER OF ATOMS
14
ITEM: BOX BOUNDS pp pp pp
-2.5000000000000000e+01 2.9000000000000000e+01
-2.5000000000000000e+01 2.5000000000000000e+01
-2.5000000000000000e+01 2.5000000000000000e+01
ITEM: ATOMS id type x y z 
11 1 -15.2391 20.3133 12.8916 
10 1 -14.7205 21.1563 13.0341 
12 1 -15.7107 19.8804 13.6599 
14 1 -15.1921 20.7234 13.8024 
9 1 -14.6734 21.5665 13.9449 
13 1 -15.6637 20.2906 14.5707 
8 1 -15.145 21.1336 14.7132 
4 1 -16.7973 21.9942 17.692 
3 1 -17.76 22.2329 17.8199 
7 1 -17.0444 22.8256 18.1898 
5 1 -16.0818 22.5868 18.0618 
2 1 -18.007 23.0643 18.3177 
6 1 -16.3289 23.4182 18.5596 
1 1 -17.2915 23.6569 18.6876 
ITEM: TIMESTEP
280000
ITEM: NUMBER OF ATOMS
14
ITEM: BOX BOUNDS pp pp pp
-2.5000000000000000e+01 2.9000000000000000e+01
-2.5000000000000000e+01 2.5000000000000000e+01
-2.5000000000000000e+01 2.5000000000000000e+01
ITEM: ATOMS id type x y z 
11 1 -15.2149 20.3719 12.8844 
10 1 -14.5097 21.0596 13.057 
12 1 -15.8259 20.0862 13.6227 
14 1 -15.1207 20.7739 13.7952 
9 1 -14.4156 21.4616 13.9678 
13 1 -15.7318 20.4882 14.5335 
8 1 -15.0266 21.1759 14.706 
4 1 -16.7779 21.9745 17.6021 
3 1 -17.7326 22.1944 17.8029 
7 1 -16.9986 22.7492 18.1947 
5 1 -16.044 22.5292 17.9939 
2 1 -17.9532 22.9691 18.3955 
1 1 -17.2192 23.5239 18.7873 
6 1 -16.2646 23.3039 18.5865 
ITEM: TIMESTEP
290000
ITEM: NUMBER OF ATOMS
14
ITEM: BOX BOUNDS pp pp pp
-2.5000000000000000e+01 2.9000000000000000e+01
-2.5000000000000000e+01 2.5000000000000000e+01
-2.5000000000000000e+01 2.5000000000000000e+01
ITEM: ATOMS id type x y z 
11 1 -15.2126 20.4676 12.9446 
10 1 -14.3697 20.9608 13.1594 
12 1 -15.9216 20.3619 13.6418 
14 1 -15.0787 20.8552 13.8567 
9 1 -14.2357 21.3484 14.0715 
13 1 -15.7877 20.7495 14.5539 
8 1 -14.9448 21.2428 14.7687 
3 1 -17.6771 22.1288 17.7202 
4 1 -16.7339 21.9336 17.4511 
2 1 -17.8666 22.8372 18.4001 
7 1 -16.9235 22.642 18.131 
5 1 -15.9804 22.4468 17.862 
6 1 -16.1699 23.1552 18.5419 
1 1 -17.1131 23.3504 18.8109 
ITEM: TIMESTEP
300000
ITEM: NUMBER OF ATOMS
14
ITEM: BOX BOUNDS pp pp pp
-2.5000000000000000e+01 2.9000000000000000e+01
-2.5000000000000000e+01 2.5000000000000000e+01
-2.5000000000000000e+01 2.5000000000000000e+01
ITEM: ATOMS id type x y z 
11 1 -15.2313 20.5937 13.0691 
10 1 -14.3076 20.8679 13.3368 
12 1 -15.9884 20.6894 13.7154 
14 1 -15.0647 20.9636 13.9831 
9 1 -14.141 21.2378 14.2508 
13 1 -15.8217 21.0593 14.6294 
8 1 -14.8981 21.3335 14.8971 
3 1 -17.5945 22.0397 17.576 
4 1 -16.6658 21.8745 17.2439 
5 1 -15.8917 22.3424 17.6702 
2 1 -17.749 22.6728 18.3344 
7 1 -16.8203 22.5076 18.0023 
6 1 -16.0462 22.9755 18.4287 
1 1 -16.9748 23.1407 18.7608 
ITEM: TIMESTEP
310000
ITEM: NUMBER OF ATOMS
14
ITEM: BOX BOUNDS pp pp pp
-2.5000000000000000e+01 2.9000000000000000e+01
-2.5000000000000000e+01 2.5000000000000000e+01
-2.5000000000000000e+01 2.5000000000000000e+01
ITEM: ATOMS id type x y z 
11 1 -15.2694 20.7434 13.2516 
10 1 -14.3262 20.79 13.5804 
12 1 -16.0193 21.0478 13.8389 
14 1 -15.0761 21.0945 14.1677 
13 1 -15.826 21.3989 14.7551 
9 1 -14.1329 21.1411 14.4966 
8 1 -14.8828 21.4455 15.0839 
4 1 -16.5755 21.8011 16.9883 
3 1 -17.4872 21.9317 17.3777 
5 1 -15.78 22.2202 17.4259 
2 1 -17.6035 22.4815 18.2049 
7 1 -16.6918 22.3508 17.8154 
6 1 -15.8963 22.77 18.2531 
1 1 -16.808 22.9006 18.6426 
ITEM: TIMESTEP
320000
ITEM: NUMBER OF ATOMS
14
ITEM: BOX BOUNDS pp pp pp
-2.5000000000000000e+01 2.9000000000000000e+01
-2.5000000000000000e+01 2.5000000000000000e+01
-2.5000000000000000e+01 2.5000000000000000e+01
ITEM: ATOMS id type x y z 
11 1 -15.3247 20.9096 13.4826 
12 1 -16.0109 21.4153 14.0053 
10 1 -14.4227 20.7362 13.878 
14 1 -15.1089 21.242 14.4007 
9 1 -14.2069 21.0686 14.7961 
13 1 -15.7952 21.7477 14.9234 
8 1 -14.8932 21.5744 15.3189 
4 1 -16.4662 21.718 16.6952 
3 1 -17.359 21.8103 17.136 
5 1 -15.6489 22.0852 17.1394 
7 1 -16.5418 22.1774 17.5802 
2 1 -17.4346 22.2696 18.021 
1 1 -16.6174 22.6368 18.4652 
6 1 -15.7245 22.5445 18.0244 
ITEM: TIMESTEP
330000
ITEM: NUMBER OF ATOMS
14
ITEM: BOX BOUNDS pp pp pp
-2.5000000000000000e+01 2.9000000000000000e+01
-2.5000000000000000e+01 2.5000000000000000e+01
-2.5000000000000000e+01 2.5000000000000000e+01
ITEM: ATOMS id type x y z 
11 1 -15.3937 21.0858 13.7502 
10 1 -14.5891 20.7154 14.2143 
12 1 -15.9626 21.7705 14.2056 
14 1 -15.158 21.4002 14.6697 
9 1 -14.3534 21.0298 15.1339 
13 1 -15.7269 22.0849 15.1252 
8 1 -14.9223 21.7146 15.5893 
4 1 -16.3422 21.6303 16.3777 
3 1 -17.2147 21.681 16.8636 
5 1 -15.503 21.9426 16.823 
2 1 -17.2481 22.044 17.7948 
7 1 -16.3756 21.9933 17.3089 
6 1 -15.5364 22.3055 17.7542 
1 1 -16.4089 22.3562 18.2401 
ITEM: TIMESTEP
340000
ITEM: NUMBER OF ATOMS
14
ITEM: BOX BOUNDS pp pp pp
-2.5000000000000000e+01 2.9000000000000000e+01
-2.5000000000000000e+01 2.5000000000000000e+01
-2.5000000000000000e+01 2.5000000000000000e+01
ITEM: ATOMS id type x y z 
11 1 -15.4925 21.2514 14.0351 
10 1 -14.8183 20.7265 14.5546 
12 1 -15.8797 22.0886 14.4212 
14 1 -15.2055 21.5637 14.9407 
9 1 -14.5314 21.0387 15.4602 
13 1 -15.5928 22.4009 15.3268 
4 1 -16.2076 21.5392 16.0714 
8 1 -14.9186 21.8759 15.8463 
3 1 -17.0663 21.5513 16.5837 
7 1 -16.2109 21.8038 17.0357 
5 1 -15.3521 21.7918 16.5234 
2 1 -17.0696 21.8159 17.548 
6 1 -15.3554 22.0564 17.4878 
1 1 -16.2141 22.0685 18.0001 
ITEM: TIMESTEP
350000
ITEM: NUMBER OF ATOMS
14
ITEM: BOX BOUNDS pp pp pp
-2.5000000000000000e+01 2.9000000000000000e+01
-2.5000000000000000e+01 2.5000000000000000e+01
-2.5000000000000000e+01 2.5000000000000000e+01
ITEM: ATOMS id type x y z 
11 1 -15.8326 21.3394 14.436 
10 1 -15.1195 20.7664 14.84 
14 1 -15.1073 21.7558 14.9842 
12 1 -15.8204 22.3288 14.5803 
9 1 -14.3943 21.1828 15.3882 
8 1 -14.382 22.1723 15.5325 
13 1 -15.0951 22.7453 15.1285 
4 1 -16.0757 21.3656 16.0214 
3 1 -16.994 21.4513 16.408 
7 1 -16.1919 21.5858 16.9899 
5 1 -15.2737 21.5001 16.6033 
2 1 -17.1102 21.6715 17.3765 
6 1 -15.3899 21.7202 17.5718 
1 1 -16.3082 21.8059 17.9584 
ITEM: TIMESTEP
360000
ITEM: NUMBER OF ATOMS
14
ITEM: BOX BOUNDS pp pp pp
-2.5000000000000000e+01 2.9000000000000000e+01
-2.5000000000000000e+01 2.5000000000000000e+01
-2.5000000000000000e+01 2.5000000000000000e+01
ITEM: ATOMS id type x y z 
11 1 -15.9675 21.6805 15.0298 
12 1 -15.7118 22.6148 14.7816 
13 1 -14.7489 22.8846 14.7748 
10 1 -15.2604 21.0159 15.2713 
9 1 -14.2975 21.2857 15.2645 
14 1 -15.0047 21.9503 15.023 
8 1 -14.0418 22.2201 15.0163 
3 1 -16.8907 21.3573 16.248 
4 1 -15.9383 21.189 15.994 
7 1 -16.1774 21.3654 16.9489 
5 1 -15.225 21.1971 16.6949 
6 1 -15.4642 21.3735 17.6497 
2 1 -17.1299 21.5337 17.2029 
1 1 -16.4166 21.5418 17.9037 
ITEM: TIMESTEP
370000
ITEM: NUMBER OF ATOMS
14
ITEM: BOX BOUNDS pp pp pp
-2.5000000000000000e+01 2.9000000000000000e+01
-2.5000000000000000e+01 2.5000000000000000e+01
-2.5000000000000000e+01 2.5000000000000000e+01
ITEM: ATOMS id type x y z 
8 1 -13.9811 22.1902 14.4858 
12 1 -15.4681 22.9224 14.9886 
13 1 -14.6136 22.9647 14.4709 
10 1 -15.0577 21.3313 15.5362 
9 1 -14.2032 21.3735 15.0185 
11 1 -15.6901 22.1057 15.5213 
14 1 -14.8356 22.148 15.0035 
3 1 -16.8704 21.2415 16.2051 
4 1 -15.9269 20.9597 16.0305 
7 1 -16.2293 21.1418 16.9661 
5 1 -15.2858 20.86 16.7915 
2 1 -17.1728 21.4235 17.1408 
6 1 -15.5882 21.042 17.7271 
1 1 -16.5317 21.3238 17.9017 
ITEM: TIMESTEP
380000
ITEM: NUMBER OF ATOMS
14
ITEM: BOX BOUNDS pp pp pp
-2.5000000000000000e+01 2.9000000000000000e+01
-2.5000000000000000e+01 2.5000000000000000e+01
-2.5000000000000000e+01 2.5000000000000000e+01
ITEM: ATOMS id type x y z 
8 1 -14.1373 22.217 14.0809 
13 1 -14.605 23.0811 14.2668 
9 1 -14.1492 21.4854 14.7625 
14 1 -14.6169 22.3495 14.9483 
10 1 -14.6288 21.6178 15.6299 
12 1 -15.0847 23.2136 15.1342 
4 1 -16.0255 20.6755 16.0973 
3 1 -16.9218 21.0975 16.2334 
11 1 -15.0965 22.4819 15.8158 
5 1 -15.4346 20.4923 16.8829 
7 1 -16.3309 20.9143 17.0191 
2 1 -17.2272 21.3363 17.1552 
6 1 -15.74 20.7312 17.8047 
1 1 -16.6363 21.1532 17.9408 
ITEM: TIMESTEP
390000
ITEM: NUMBER OF ATOMS
14
ITEM: BOX BOUNDS pp pp pp
-2.5000000000000000e+01 2.9000000000000000e+01
-2.5000000000000000e+01 2.5000000000000000e+01
-2.5000000000000000e+01 2.5000000000000000e+01
ITEM: ATOMS id type x y z 
8 1 -14.4478 22.2657 13.9497 
13 1 -14.6819 23.2017 14.2128 
9 1 -14.1791 21.6024 14.6481 
14 1 -14.4132 22.5383 14.9112 
10 1 -14.1444 21.875 15.6096 
12 1 -14.6473 23.4743 15.1743 
4 1 -16.1164 20.4072 16.1463 
3 1 -16.9441 20.9598 16.2447 
11 1 -14.3785 22.811 15.8727 
5 1 -15.5898 20.147 16.9555 
7 1 -16.4175 20.6995 17.054 
6 1 -15.8908 20.4392 17.8633 
2 1 -17.2451 21.2521 17.1524 
1 1 -16.7185 20.9918 17.9617 
ITEM: TIMESTEP
400000
ITEM: NUMBER OF ATOMS
14
ITEM: BOX BOUNDS pp pp pp
-2.5000000000000000e+01 2.9000000000000000e+01
-2.5000000000000000e+01 2.5000000000000000e+01
-2.5000000000000000e+01 2.5000000000000000e+01
ITEM: ATOMS id type x y z 
8 1 -14.7652 22.3595 14.1265 
9 1 -14.2252 21.7301 14.6853 
14 1 -14.231 22.7074 14.8969 
13 1 -14.771 23.3368 14.3381 
10 1 -13.691 22.078 15.4557 
12 1 -14.2368 23.6848 15.1086 
4 1 -16.1922 20.1629 16.172 
3 1 -16.9315 20.8334 16.2351 
11 1 -13.6968 23.0554 15.6674 
5 1 -15.7432 19.834 17.0029 
7 1 -16.4825 20.5045 17.0659 
2 1 -17.2217 21.175 17.129 
6 1 -16.0335 20.1757 17.8968 
1 1 -16.7727 20.8461 17.9598 
ITEM: TIMESTEP
410000
ITEM: NUMBER OF ATOMS
14
ITEM: BOX BOUNDS pp pp pp
-2.5000000000000000e+01 2.9000000000000000e+01
-2.5000000000000000e+01 2.5000000000000000e+01
-2.5000000000000000e+01 2.5000000000000000e+01
ITEM: ATOMS id type x y z 
9 1 -14.2312 21.864 14.8451 
8 1 -14.946 22.5022 14.5591 
14 1 -14.0761 22.8498 14.909 
13 1 -14.7909 23.488 14.623 
12 1 -13.9209 23.8356 14.9729 
10 1 -13.3613 22.2115 15.1949 
11 1 -13.2062 23.1974 15.2589 
4 1 -16.246 19.95 16.171 
3 1 -16.8795 20.7231 16.2024 
5 1 -15.8867 19.5631 17.0203 
7 1 -16.5202 20.3362 17.0516 
2 1 -17.1537 21.1093 17.083 
6 1 -16.1609 19.9494 17.9009 
1 1 -16.7944 20.7225 17.9323 
ITEM: TIMESTEP
420000
ITEM: NUMBER OF ATOMS
14
ITEM: BOX BOUNDS pp pp pp
-2.5000000000000000e+01 2.9000000000000000e+01
-2.5000000000000000e+01 2.5000000000000000e+01
-2.5000000000000000e+01 2.5000000000000000e+01
ITEM: ATOMS id type x y z 
10 1 -13.2264 22.2743 14.8975 
14 1 -13.9531 22.9593 14.9489 
11 1 -13.0104 23.2426 14.7724 
13 1 -14.6798 23.6444 15.0004 
12 1 -13.7371 23.9277 14.8239 
9 1 -14.169 21.991 15.074 
8 1 -14.8957 22.676 15.1255 
4 1 -16.272 19.7748 16.1411 
3 1 -16.7852 20.6331 16.1457 
5 1 -16.0129 19.3425 17.0048 
7 1 -16.5261 20.2008 17.0094 
2 1 -17.0393 21.059 17.0141 
6 1 -16.267 19.7685 17.8731 
1 1 -16.7801 20.6267 17.8778 
ITEM: TIMESTEP
430000
ITEM: NUMBER OF ATOMS
14
ITEM: BOX BOUNDS pp pp pp
-2.5000000000000000e+01 2.9000000000000000e+01
-2.5000000000000000e+01 2.5000000000000000e+01
-2.5000000000000000e+01 2.5000000000000000e+01
ITEM: ATOMS id type x y z 
10 1 -13.3108 22.2794 14.6601 
11 1 -13.1325 23.2171 14.3619 
12 1 -13.6867 23.9691 14.7187 
9 1 -14.0433 22.0937 15.3151 
8 1 -14.5975 22.8457 15.6719 
14 1 -13.865 23.0314 15.0169 
13 1 -14.4192 23.7834 15.3737 
4 1 -16.2661 19.6421 16.0822 
3 1 -16.6475 20.5664 16.0661 
5 1 -16.1156 19.1785 16.9554 
7 1 -16.497 20.1028 16.9392 
2 1 -16.8784 21.027 16.9231 
6 1 -16.3465 19.6392 17.8124 
1 1 -16.7279 20.5634 17.7963 
ITEM: TIMESTEP
440000
ITEM: NUMBER OF ATOMS
14
ITEM: BOX BOUNDS pp pp pp
-2.5000000000000000e+01 2.9000000000000000e+01
-2.5000000000000000e+01 2.5000000000000000e+01
-2.5000000000000000e+01 2.5000000000000000e+01
ITEM: ATOMS id type x y z 
11 1 -13.5095 23.1577 14.1634 
10 1 -13.5811 22.2502 14.5772 
12 1 -13.7416 23.9705 14.6976 
9 1 -13.885 22.1555 15.5252 
14 1 -13.8133 23.063 15.1114 
13 1 -14.0455 23.8759 15.6456 
4 1 -16.2258 19.5548 15.9957 
3 1 -16.4673 20.5247 15.9657 
8 1 -14.1171 22.9683 16.0594 
5 1 -16.19 19.0753 16.8725 
7 1 -16.4315 20.0452 16.8425 
2 1 -16.673 21.0152 16.8125 
6 1 -16.3958 19.5657 17.7193 
1 1 -16.6373 20.5357 17.6893 
ITEM: TIMESTEP
450000
ITEM: NUMBER OF ATOMS
14
ITEM: BOX BOUNDS pp pp pp
-2.5000000000000000e+01 2.9000000000000000e+01
-2.5000000000000000e+01 2.5000000000000000e+01
-2.5000000000000000e+01 2.5000000000000000e+01
ITEM: ATOMS id type x y z 
11 1 -14.0127 23.1007 14.2542 
10 1 -13.9519 22.2128 14.7101 
12 1 -13.8584 23.9411 14.7738 
9 1 -13.7368 22.1652 15.6856 
14 1 -13.7976 23.0532 15.2297 
4 1 -16.1506 19.5135 15.8842 
3 1 -16.2477 20.5081 15.848 
8 1 -13.5824 23.0056 16.2051 
13 1 -13.6432 23.8936 15.7492 
5 1 -16.2331 19.0345 16.7581 
7 1 -16.3301 20.0291 16.722 
2 1 -16.4272 21.0238 16.6858 
6 1 -16.4125 19.5502 17.5959 
1 1 -16.5096 20.5448 17.5598 
ITEM: TIMESTEP
460000
ITEM: NUMBER OF ATOMS
14
ITEM: BOX BOUNDS pp pp pp
-2.5000000000000000e+01 2.9000000000000000e+01
-2.5000000000000000e+01 2.5000000000000000e+01
-2.5000000000000000e+01 2.5000000000000000e+01
ITEM: ATOMS id type x y z 
10 1 -14.3086 22.1876 15.0643 
11 1 -14.4879 23.0707 14.6306 
12 1 -13.995 23.886 14.9343 
14 1 -13.8156 23.003 15.3679 
13 1 -13.3227 23.8183 15.6715 
4 1 -16.0419 19.5167 15.7517 
3 1 -15.9936 20.515 15.7175 
9 1 -13.6363 22.1199 15.8015 
8 1 -13.1434 22.9353 16.1051 
5 1 -16.2432 19.0552 16.6157 
7 1 -16.1949 20.0534 16.5815 
2 1 -16.1466 21.0517 16.5473 
6 1 -16.3962 19.5919 17.4455 
1 1 -16.3479 20.5901 17.4113 
ITEM: TIMESTEP
470000
ITEM: NUMBER OF ATOMS
14
ITEM: BOX BOUNDS pp pp pp
-2.5000000000000000e+01 2.9000000000000000e+01
-2.5000000000000000e+01 2.5000000000000000e+01
-2.5000000000000000e+01 2.5000000000000000e+01
ITEM: ATOMS id type x y z 
4 1 -15.9028 19.5608 15.6029 
3 1 -15.7117 20.5421 15.5791 
10 1 -14.5412 22.1823 15.5817 
11 1 -14.8007 23.0734 15.2094 
14 1 -13.8638 22.9155 15.5215 
12 1 -14.1233 23.8066 15.1492 
13 1 -13.1864 23.6486 15.4612 
2 1 -15.8385 21.0963 16.4019 
9 1 -13.6044 22.0244 15.8938 
8 1 -12.927 22.7575 15.8335 
5 1 -16.2206 19.1337 16.4494 
7 1 -16.0296 20.115 16.4256 
6 1 -16.3474 19.6878 17.2721 
1 1 -16.1563 20.6691 17.2483 
ITEM: TIMESTEP
480000
ITEM: NUMBER OF ATOMS
14
ITEM: BOX BOUNDS pp pp pp
-2.5000000000000000e+01 2.9000000000000000e+01
-2.5000000000000000e+01 2.5000000000000000e+01
-2.5000000000000000e+01 2.5000000000000000e+01
ITEM: ATOMS id type x y z 
4 1 -15.738 19.6401 15.443 
3 1 -15.4102 20.5849 15.4381 
14 1 -13.9369 22.7958 15.6855 
8 1 -12.998 22.4955 15.517 
13 1 -13.2946 23.402 15.2165 
12 1 -14.2335 23.7023 15.3851 
5 1 -16.1671 19.264 16.2642 
7 1 -15.8393 20.2087 16.2593 
2 1 -15.5116 21.1535 16.2545 
9 1 -13.6403 21.8893 15.986 
10 1 -14.5791 22.1895 16.1546 
11 1 -14.8758 23.096 15.8541 
6 1 -16.2684 19.8326 17.0805 
1 1 -15.9407 20.7773 17.0757 
ITEM: TIMESTEP
490000
ITEM: NUMBER OF ATOMS
14
ITEM: BOX BOUNDS pp pp pp
-2.5000000000000000e+01 2.9000000000000000e+01
-2.5000000000000000e+01 2.5000000000000000e+01
-2.5000000000000000e+01 2.5000000000000000e+01
ITEM: ATOMS id type x y z 
4 1 -15.5535 19.7472 15.2768 
3 1 -15.0983 20.6374 15.2991 
8 1 -13.3411 22.1892 15.2948 
13 1 -13.6429 23.1123 15.0566 
12 1 -14.3304 23.5738 15.6172 
5 1 -16.0855 19.4378 16.0649 
7 1 -15.6303 20.3279 16.0873 
2 1 -15.1752 21.218 16.1096 
9 1 -13.727 21.7275 16.0935 
14 1 -14.0287 22.6507 15.8553 
11 1 -14.7163 23.1122 16.4159 
6 1 -16.1624 20.0185 16.8754 
1 1 -15.7072 20.9086 16.8978 
10 1 -14.4146 22.189 16.6541 
ITEM: TIMESTEP
500000
ITEM: NUMBER OF ATOMS
14
ITEM: BOX BOUNDS pp pp pp
-2.5000000000000000e+01 2.9000000000000000e+01
-2.5000000000000000e+01 2.5000000000000000e+01
-2.5000000000000000e+01 2.5000000000000000e+01
ITEM: ATOMS id type x y z 
4 1 -15.3559 19.8734 15.1085 
3 1 -14.7855 20.6927 15.1659 
8 1 -13.866 21.8842 15.276 
13 1 -14.1576 22.8213 15.0844 
5 1 -15.9798 19.6451 15.8559 
7 1 -15.4094 20.4644 15.9133 
2 1 -14.839 21.2838 15.9708 
9 1 -13.8408 21.5511 16.2186 
14 1 -14.1325 22.4883 16.027 
12 1 -14.4242 23.4254 15.8354 
6 1 -16.0333 20.2361 16.6607 
1 1 -15.4629 21.0554 16.7182 
10 1 -14.1074 22.1552 16.9696 
11 1 -14.3991 23.0923 16.778 
ITEM: TIMESTEP
510000
ITEM: NUMBER OF ATOMS
14
ITEM: BOX BOUNDS pp pp pp
-2.5000000000000000e+01 2.9000000000000000e+01
-2.5000000000000000e+01 2.5000000000000000e+01
-2.5000000000000000e+01 2.5000000000000000e+01
ITEM: ATOMS id type x y z 
4 1 -15.1868 19.9903 14.9701 
5 1 -15.9113 19.7742 15.6246 
3 1 -14.5707 20.7591 15.1418 
8 1 -14.086 21.7888 15.3392 
13 1 -14.5409 22.6773 15.2789 
7 1 -15.2952 20.543 15.7963 
2 1 -14.6792 21.3118 15.968 
9 1 -13.6746 21.4952 16.2021 
14 1 -14.1295 22.3837 16.1418 
12 1 -14.5844 23.2722 16.0815 
6 1 -16.0197 20.327 16.4509 
1 1 -15.4037 21.0958 16.6226 
10 1 -13.7181 22.0902 17.0046 
11 1 -14.173 22.9786 16.9444 
ITEM: TIMESTEP
520000
ITEM: NUMBER OF ATOMS
14
ITEM: BOX BOUNDS pp pp pp
-2.5000000000000000e+01 2.9000000000000000e+01
-2.5000000000000000e+01 2.5000000000000000e+01
-2.5000000000000000e+01 2.5000000000000000e+01
ITEM: ATOMS id type x y z 
4 1 -15.078 20.1316 14.9411 
5 1 -15.9267 19.795 15.3491 
3 1 -14.5357 20.8249 15.4156 
13 1 -14.5003 22.774 15.3799 
8 1 -13.6918 22.2295 15.1568 
6 1 -16.233 20.1519 16.2316 
7 1 -15.3843 20.4884 15.8236 
2 1 -14.842 21.1818 16.2981 
9 1 -13.1147 21.8679 15.8891 
14 1 -13.9233 22.4124 16.1123 
12 1 -14.7318 22.9569 16.3354 
1 1 -15.6907 20.8452 16.7061 
10 1 -13.3462 22.0508 16.8446 
11 1 -14.1548 22.5953 17.0677 
ITEM: TIMESTEP
530000
ITEM: NUMBER OF ATOMS
14
ITEM: BOX BOUNDS pp pp pp
-2.5000000000000000e+01 2.9000000000000000e+01
-2.5000000000000000e+01 2.5000000000000000e+01
-2.5000000000000000e+01 2.5000000000000000e+01
ITEM: ATOMS id type x y z 
4 1 -14.9806 20.3167 14.9874 
5 1 -15.8778 19.8962 15.1223 
3 1 -14.5696 20.8629 15.7173 
13 1 -14.4297 22.831 15.496 
8 1 -13.4834 22.783 15.1762 
6 1 -16.364 20.0219 15.987 
7 1 -15.4668 20.4424 15.8522 
12 1 -14.6699 22.4804 16.4012 
14 1 -13.7236 22.4325 16.0814 
9 1 -12.7774 22.3845 15.7616 
1 1 -15.9531 20.5681 16.7169 
2 1 -15.0558 20.9886 16.5821 
10 1 -13.0176 22.034 16.6668 
11 1 -13.9638 22.0819 16.9866 
ITEM: TIMESTEP
540000
ITEM: NUMBER OF ATOMS
14
ITEM: BOX BOUNDS pp pp pp
-2.5000000000000000e+01 2.9000000000000000e+01
-2.5000000000000000e+01 2.5000000000000000e+01
-2.5000000000000000e+01 2.5000000000000000e+01
ITEM: ATOMS id type x y z 
5 1 -15.7792 20.0653 14.9745 
4 1 -14.9065 20.5323 15.1169 
13 1 -14.3637 22.8446 15.6624 
8 1 -13.4698 23.2427 15.4563 
6 1 -16.411 19.9419 15.7397 
7 1 -15.5383 20.4089 15.8822 
3 1 -14.6656 20.8759 16.0246 
12 1 -14.4289 22.042 16.2554 
14 1 -13.535 22.4401 16.0492 
9 1 -12.6411 22.8381 15.843 
1 1 -16.1701 20.2856 16.6474 
2 1 -15.2974 20.7525 16.7898 
11 1 -13.6002 21.6374 16.6421 
10 1 -12.7063 22.0355 16.4359 
ITEM: TIMESTEP
550000
ITEM: NUMBER OF ATOMS
14
ITEM: BOX BOUNDS pp pp pp
-2.5000000000000000e+01 2.9000000000000000e+01
-2.5000000000000000e+01 2.5000000000000000e+01
-2.5000000000000000e+01 2.5000000000000000e+01