LAMMPS (9 Nov 2016)
OMP_NUM_THREADS environment is not set. Defaulting to 1 thread. (../comm.cpp:90)
  using 1 OpenMP thread(s) per MPI task
# Input file for LAMMPS 2 hexagonal rigid bodies
# Author: Shanil Panara
# Date: 13/01/2022
# Notes:
#   use of MOLECULE package for binding particles in a rigid body
#   NVT simulation

##################################### SETUP #####################################
# ------------------------------- INITIALISATION --------------------------------
units       lj                                  # could also be: real, metal, si
dimension   3                                   # create box
boundary    p p p                               # all three boundaries are non-periodic
atom_style  full                                # can be used for CG or molecular bodies

# --------------------------------- VARIABLES -----------------------------------
# System Parameters
variable sigma   equal 1.0                      # sigma in lj potential
variable epsilon equal 1.0                      # sigma in lj potential
variable cut     equal 1.12246                  # cutoff in lj potential (lj distance units)
variable temp    equal 2.25                     # temperature (lj temperature units)
variable K       equal 10*v_temp/v_cut/v_cut    # spring constant (force/distance units)
variable r0      equal 2                        # equilibrium distance (lj distance units)
variable seed    equal 5                        # random seed value
variable name    string "NVE-temp-${temp}_K-${K}_r-${r0}_s-${seed}"

# Output File Names
variable traj       string  "${name}-traj.dump"
variable rb_info    string  "${name}-info.dat"
variable sim_log    string  "${name}-sim.log"
variable input_log  string  "${name}-input.log"

log ${input_log}                                # start a new log file to log input parameters/lammps response
log ${name}-input.log                                
