ITEM: TIMESTEP
100000
ITEM: NUMBER OF ENTRIES
1
ITEM: BOX BOUNDS pp pp pp
-25 29
-25 25
-25 25
ITEM: ENTRIES c_com_1[1] c_com_1[2] c_com_1[3] c_com_2[1] c_com_2[2] c_com_2[3] c_vel_1[1] c_vel_1[2] c_vel_1[3] c_vel_2[1] c_vel_2[2] c_vel_2[3] c_q_1[1] c_q_1[2] c_q_1[3] c_q_1[4] c_q_2[1] c_q_2[2] c_q_2[3] c_q_2[4] c_av_1[1] c_av_1[2] c_av_1[3] c_av_2[1] c_av_2[2] c_av_2[3] c_am_1[1] c_am_1[2] c_am_1[3] c_am_2[1] c_am_2[2] c_am_2[3] c_i_1[1] c_i_1[2] c_i_1[3] c_i_2[1] c_i_2[2] c_i_2[3] 
-105.566 -54.5083 -65.3337 -104.447 -53.314 -66.8036 -0.568019 -0.0273352 0.111808 0.477053 -0.745073 0.29532 -0.01823 -0.0266479 0.117949 0.992495 -0.0426542 -0.00454364 -0.195726 0.97972 0.313129 0.363569 -0.498564 0.0406259 0.897967 0.345188 1.02597 1.04545 -3.00623 0.131719 2.80168 2.29356 3 3 6 3 3 6 
ITEM: TIMESTEP
101000
ITEM: NUMBER OF ENTRIES
1
ITEM: BOX BOUNDS pp pp pp
-25 29
-25 25
-25 25
ITEM: ENTRIES c_com_1[1] c_com_1[2] c_com_1[3] c_com_2[1] c_com_2[2] c_com_2[3] c_vel_1[1] c_vel_1[2] c_vel_1[3] c_vel_2[1] c_vel_2[2] c_vel_2[3] c_q_1[1] c_q_1[2] c_q_1[3] c_q_1[4] c_q_2[1] c_q_2[2] c_q_2[3] c_q_2[4] c_av_1[1] c_av_1[2] c_av_1[3] c_av_2[1] c_av_2[2] c_av_2[3] c_am_1[1] c_am_1[2] c_am_1[3] c_am_2[1] c_am_2[2] c_am_2[3] c_i_1[1] c_i_1[2] c_i_1[3] c_i_2[1] c_i_2[2] c_i_2[3] 
-105.571 -54.5085 -65.3326 -104.442 -53.3215 -66.8006 -0.566284 -0.0254974 0.10954 0.475318 -0.746911 0.297588 -0.0165237 -0.0249869 0.115466 0.99286 -0.0433346 -0.0001801 -0.193842 0.980075 0.315028 0.362127 -0.498418 0.036984 0.898112 0.345219 1.02597 1.04545 -3.00623 0.131719 2.80168 2.29356 3 3 6 3 3 6 
ITEM: TIMESTEP
102000
ITEM: NUMBER OF ENTRIES
1
ITEM: BOX BOUNDS pp pp pp
-25 29
-25 25
-25 25
ITEM: ENTRIES c_com_1[1] c_com_1[2] c_com_1[3] c_com_2[1] c_com_2[2] c_com_2[3] c_vel_1[1] c_vel_1[2] c_vel_1[3] c_vel_2[1] c_vel_2[2] c_vel_2[3] c_q_1[1] c_q_1[2] c_q_1[3] c_q_1[4] c_q_2[1] c_q_2[2] c_q_2[3] c_q_2[4] c_av_1[1] c_av_1[2] c_av_1[3] c_av_2[1] c_av_2[2] c_av_2[3] c_am_1[1] c_am_1[2] c_am_1[3] c_am_2[1] c_am_2[2] c_am_2[3] c_i_1[1] c_i_1[2] c_i_1[3] c_i_2[1] c_i_2[2] c_i_2[3] 
-105.577 -54.5088 -65.3315 -104.438 -53.329 -66.7976 -0.564531 -0.0236682 0.107273 0.473564 -0.74874 0.299855 -0.0148087 -0.0233339 0.112982 0.993213 -0.044032 0.00418055 -0.191953 0.980407 0.316913 0.360665 -0.498283 0.0333415 0.898229 0.345285 1.02597 1.04545 -3.00623 0.131719 2.80168 2.29356 3 3 6 3 3 6 
ITEM: TIMESTEP
103000
ITEM: NUMBER OF ENTRIES
1
ITEM: BOX BOUNDS pp pp pp
-25 29
-25 25
-25 25
ITEM: ENTRIES c_com_1[1] c_com_1[2] c_com_1[3] c_com_2[1] c_com_2[2] c_com_2[3] c_vel_1[1] c_vel_1[2] c_vel_1[3] c_vel_2[1] c_vel_2[2] c_vel_2[3] c_q_1[1] c_q_1[2] c_q_1[3] c_q_1[4] c_q_2[1] c_q_2[2] c_q_2[3] c_q_2[4] c_av_1[1] c_av_1[2] c_av_1[3] c_av_2[1] c_av_2[2] c_av_2[3] c_am_1[1] c_am_1[2] c_am_1[3] c_am_2[1] c_am_2[2] c_am_2[3] c_i_1[1] c_i_1[2] c_i_1[3] c_i_2[1] c_i_2[2] c_i_2[3] 
-105.583 -54.509 -65.3304 -104.433 -53.3365 -66.7946 -0.56276 -0.0218485 0.105006 0.471793 -0.75056 0.302122 -0.0130849 -0.021689 0.110496 0.993554 -0.0447463 0.00853809 -0.19006 0.980715 0.318784 0.359184 -0.49816 0.029699 0.898318 0.345385 1.02597 1.04545 -3.00623 0.131719 2.80168 2.29356 3 3 6 3 3 6 
ITEM: TIMESTEP
104000
ITEM: NUMBER OF ENTRIES
1
ITEM: BOX BOUNDS pp pp pp
-25 29
-25 25
-25 25
ITEM: ENTRIES c_com_1[1] c_com_1[2] c_com_1[3] c_com_2[1] c_com_2[2] c_com_2[3] c_vel_1[1] c_vel_1[2] c_vel_1[3] c_vel_2[1] c_vel_2[2] c_vel_2[3] c_q_1[1] c_q_1[2] c_q_1[3] c_q_1[4] c_q_2[1] c_q_2[2] c_q_2[3] c_q_2[4] c_av_1[1] c_av_1[2] c_av_1[3] c_av_2[1] c_av_2[2] c_av_2[3] c_am_1[1] c_am_1[2] c_am_1[3] c_am_2[1] c_am_2[2] c_am_2[3] c_i_1[1] c_i_1[2] c_i_1[3] c_i_2[1] c_i_2[2] c_i_2[3] 
-105.588 -54.5092 -65.3294 -104.428 -53.344 -66.7916 -0.560971 -0.0200383 0.10274 0.470004 -0.75237 0.304388 -0.0113526 -0.0200523 0.10801 0.993883 -0.0454775 0.0128923 -0.188162 0.981 0.32064 0.357683 -0.498048 0.0260571 0.89838 0.34552 1.02597 1.04545 -3.00623 0.131719 2.80168 2.29356 3 3 6 3 3 6 
ITEM: TIMESTEP
105000
ITEM: NUMBER OF ENTRIES
1
ITEM: BOX BOUNDS pp pp pp
-25 29
-25 25
-25 25
ITEM: ENTRIES c_com_1[1] c_com_1[2] c_com_1[3] c_com_2[1] c_com_2[2] c_com_2[3] c_vel_1[1] c_vel_1[2] c_vel_1[3] c_vel_2[1] c_vel_2[2] c_vel_2[3] c_q_1[1] c_q_1[2] c_q_1[3] c_q_1[4] c_q_2[1] c_q_2[2] c_q_2[3] c_q_2[4] c_av_1[1] c_av_1[2] c_av_1[3] c_av_2[1] c_av_2[2] c_av_2[3] c_am_1[1] c_am_1[2] c_am_1[3] c_am_2[1] c_am_2[2] c_am_2[3] c_i_1[1] c_i_1[2] c_i_1[3] c_i_2[1] c_i_2[2] c_i_2[3] 
-105.594 -54.5094 -65.3284 -104.423 -53.3515 -66.7885 -0.559164 -0.0182377 0.100475 0.468198 -0.754171 0.306653 -0.00961171 -0.0184238 0.105523 0.9942 -0.0462256 0.017243 -0.186259 0.981261 0.322481 0.356164 -0.497948 0.0224162 0.898413 0.345688 1.02597 1.04545 -3.00623 0.131719 2.80168 2.29356 3 3 6 3 3 6 
ITEM: TIMESTEP
106000
ITEM: NUMBER OF ENTRIES
1
ITEM: BOX BOUNDS pp pp pp
-25 29
-25 25
-25 25
ITEM: ENTRIES c_com_1[1] c_com_1[2] c_com_1[3] c_com_2[1] c_com_2[2] c_com_2[3] c_vel_1[1] c_vel_1[2] c_vel_1[3] c_vel_2[1] c_vel_2[2] c_vel_2[3] c_q_1[1] c_q_1[2] c_q_1[3] c_q_1[4] c_q_2[1] c_q_2[2] c_q_2[3] c_q_2[4] c_av_1[1] c_av_1[2] c_av_1[3] c_av_2[1] c_av_2[2] c_av_2[3] c_am_1[1] c_am_1[2] c_am_1[3] c_am_2[1] c_am_2[2] c_am_2[3] c_i_1[1] c_i_1[2] c_i_1[3] c_i_2[1] c_i_2[2] c_i_2[3] 
-105.6 -54.5096 -65.3274 -104.419 -53.3591 -66.7855 -0.557339 -0.0164467 0.0982106 0.466373 -0.755962 0.308918 -0.00786241 -0.0168037 0.103034 0.994505 -0.0469905 0.02159 -0.18435 0.981499 0.324307 0.354626 -0.49786 0.0187768 0.898419 0.34589 1.02597 1.04545 -3.00623 0.131719 2.80168 2.29356 3 3 6 3 3 6 
ITEM: TIMESTEP
107000
ITEM: NUMBER OF ENTRIES
1
ITEM: BOX BOUNDS pp pp pp
-25 29
-25 25
-25 25
ITEM: ENTRIES c_com_1[1] c_com_1[2] c_com_1[3] c_com_2[1] c_com_2[2] c_com_2[3] c_vel_1[1] c_vel_1[2] c_vel_1[3] c_vel_2[1] c_vel_2[2] c_vel_2[3] c_q_1[1] c_q_1[2] c_q_1[3] c_q_1[4] c_q_2[1] c_q_2[2] c_q_2[3] c_q_2[4] c_av_1[1] c_av_1[2] c_av_1[3] c_av_2[1] c_av_2[2] c_av_2[3] c_am_1[1] c_am_1[2] c_am_1[3] c_am_2[1] c_am_2[2] c_am_2[3] c_i_1[1] c_i_1[2] c_i_1[3] c_i_2[1] c_i_2[2] c_i_2[3] 
-105.605 -54.5097 -65.3264 -104.414 -53.3666 -66.7824 -0.555497 -0.0146653 0.0959473 0.464531 -0.757743 0.311181 -0.00610476 -0.0151921 0.100545 0.994798 -0.0477722 0.025933 -0.182437 0.981714 0.326118 0.35307 -0.497783 0.0151396 0.898397 0.346126 1.02597 1.04545 -3.00623 0.131719 2.80168 2.29356 3 3 6 3 3 6 
ITEM: TIMESTEP
108000
ITEM: NUMBER OF ENTRIES
1
ITEM: BOX BOUNDS pp pp pp
-25 29
-25 25
-25 25
ITEM: ENTRIES c_com_1[1] c_com_1[2] c_com_1[3] c_com_2[1] c_com_2[2] c_com_2[3] c_vel_1[1] c_vel_1[2] c_vel_1[3] c_vel_2[1] c_vel_2[2] c_vel_2[3] c_q_1[1] c_q_1[2] c_q_1[3] c_q_1[4] c_q_2[1] c_q_2[2] c_q_2[3] c_q_2[4] c_av_1[1] c_av_1[2] c_av_1[3] c_av_2[1] c_av_2[2] c_av_2[3] c_am_1[1] c_am_1[2] c_am_1[3] c_am_2[1] c_am_2[2] c_am_2[3] c_i_1[1] c_i_1[2] c_i_1[3] c_i_2[1] c_i_2[2] c_i_2[3] 
-105.611 -54.5099 -65.3255 -104.409 -53.3742 -66.7792 -0.553637 -0.0128935 0.0936849 0.462671 -0.759515 0.313443 -0.00433885 -0.0135889 0.0980544 0.995079 -0.0485707 0.0302719 -0.180519 0.981905 0.327914 0.351495 -0.497718 0.0115051 0.898347 0.346396 1.02597 1.04545 -3.00623 0.131719 2.80168 2.29356 3 3 6 3 3 6 
ITEM: TIMESTEP
109000
ITEM: NUMBER OF ENTRIES
1
ITEM: BOX BOUNDS pp pp pp
-25 29
-25 25
-25 25
ITEM: ENTRIES c_com_1[1] c_com_1[2] c_com_1[3] c_com_2[1] c_com_2[2] c_com_2[3] c_vel_1[1] c_vel_1[2] c_vel_1[3] c_vel_2[1] c_vel_2[2] c_vel_2[3] c_q_1[1] c_q_1[2] c_q_1[3] c_q_1[4] c_q_2[1] c_q_2[2] c_q_2[3] c_q_2[4] c_av_1[1] c_av_1[2] c_av_1[3] c_av_2[1] c_av_2[2] c_av_2[3] c_am_1[1] c_am_1[2] c_am_1[3] c_am_2[1] c_am_2[2] c_am_2[3] c_i_1[1] c_i_1[2] c_i_1[3] c_i_2[1] c_i_2[2] c_i_2[3] 
-105.616 -54.51 -65.3246 -104.405 -53.3818 -66.7761 -0.551759 -0.0111315 0.0914235 0.460793 -0.761277 0.315705 -0.00256477 -0.0119944 0.0955629 0.995348 -0.0493858 0.0346064 -0.178596 0.982073 0.329694 0.349902 -0.497664 0.00787365 0.898269 0.3467 1.02597 1.04545 -3.00623 0.131719 2.80168 2.29356 3 3 6 3 3 6 
ITEM: TIMESTEP
110000
ITEM: NUMBER OF ENTRIES
1
ITEM: BOX BOUNDS pp pp pp
-25 29
-25 25
-25 25
ITEM: ENTRIES c_com_1[1] c_com_1[2] c_com_1[3] c_com_2[1] c_com_2[2] c_com_2[3] c_vel_1[1] c_vel_1[2] c_vel_1[3] c_vel_2[1] c_vel_2[2] c_vel_2[3] c_q_1[1] c_q_1[2] c_q_1[3] c_q_1[4] c_q_2[1] c_q_2[2] c_q_2[3] c_q_2[4] c_av_1[1] c_av_1[2] c_av_1[3] c_av_2[1] c_av_2[2] c_av_2[3] c_am_1[1] c_am_1[2] c_am_1[3] c_am_2[1] c_am_2[2] c_am_2[3] c_i_1[1] c_i_1[2] c_i_1[3] c_i_2[1] c_i_2[2] c_i_2[3] 
-105.622 -54.5101 -65.3237 -104.4 -53.3895 -66.7729 -0.549863 -0.0093791 0.0891631 0.458897 -0.763029 0.317965 -0.0007826 -0.0104085 0.0930704 0.995605 -0.0502176 0.0389363 -0.176668 0.982217 0.331458 0.348292 -0.497622 0.00424595 0.898163 0.347038 1.02597 1.04545 -3.00623 0.131719 2.80168 2.29356 3 3 6 3 3 6 
ITEM: TIMESTEP
111000
ITEM: NUMBER OF ENTRIES
1
ITEM: BOX BOUNDS pp pp pp
-25 29
-25 25
-25 25
ITEM: ENTRIES c_com_1[1] c_com_1[2] c_com_1[3] c_com_2[1] c_com_2[2] c_com_2[3] c_vel_1[1] c_vel_1[2] c_vel_1[3] c_vel_2[1] c_vel_2[2] c_vel_2[3] c_q_1[1] c_q_1[2] c_q_1[3] c_q_1[4] c_q_2[1] c_q_2[2] c_q_2[3] c_q_2[4] c_av_1[1] c_av_1[2] c_av_1[3] c_av_2[1] c_av_2[2] c_av_2[3] c_am_1[1] c_am_1[2] c_am_1[3] c_am_2[1] c_am_2[2] c_am_2[3] c_i_1[1] c_i_1[2] c_i_1[3] c_i_2[1] c_i_2[2] c_i_2[3] 
-105.627 -54.5102 -65.3228 -104.396 -53.3971 -66.7697 -0.547949 -0.00763649 0.0869036 0.456983 -0.764772 0.320225 0.00100757 -0.00883141 0.0905768 0.99585 -0.051066 0.0432614 -0.174735 0.982338 0.333206 0.346663 -0.497592 0.000622471 0.898029 0.347409 1.02597 1.04545 -3.00623 0.131719 2.80168 2.29356 3 3 6 3 3 6 
ITEM: TIMESTEP
112000
ITEM: NUMBER OF ENTRIES
1
ITEM: BOX BOUNDS pp pp pp
-25 29
-25 25
-25 25
ITEM: ENTRIES c_com_1[1] c_com_1[2] c_com_1[3] c_com_2[1] c_com_2[2] c_com_2[3] c_vel_1[1] c_vel_1[2] c_vel_1[3] c_vel_2[1] c_vel_2[2] c_vel_2[3] c_q_1[1] c_q_1[2] c_q_1[3] c_q_1[4] c_q_2[1] c_q_2[2] c_q_2[3] c_q_2[4] c_av_1[1] c_av_1[2] c_av_1[3] c_av_2[1] c_av_2[2] c_av_2[3] c_am_1[1] c_am_1[2] c_am_1[3] c_am_2[1] c_am_2[2] c_am_2[3] c_i_1[1] c_i_1[2] c_i_1[3] c_i_2[1] c_i_2[2] c_i_2[3] 
-105.633 -54.5102 -65.3219 -104.391 -53.4048 -66.7665 -0.546018 -0.00590367 0.0846451 0.455051 -0.766505 0.322483 0.00280565 -0.00726313 0.0880822 0.996083 -0.0519309 0.0475816 -0.172797 0.982436 0.334937 0.345017 -0.497573 -0.00299625 0.897867 0.347815 1.02597 1.04545 -3.00623 0.131719 2.80168 2.29356 3 3 6 3 3 6 
ITEM: TIMESTEP
113000
ITEM: NUMBER OF ENTRIES
1
ITEM: BOX BOUNDS pp pp pp
-25 29
-25 25
-25 25
ITEM: ENTRIES c_com_1[1] c_com_1[2] c_com_1[3] c_com_2[1] c_com_2[2] c_com_2[3] c_vel_1[1] c_vel_1[2] c_vel_1[3] c_vel_2[1] c_vel_2[2] c_vel_2[3] c_q_1[1] c_q_1[2] c_q_1[3] c_q_1[4] c_q_2[1] c_q_2[2] c_q_2[3] c_q_2[4] c_av_1[1] c_av_1[2] c_av_1[3] c_av_2[1] c_av_2[2] c_av_2[3] c_am_1[1] c_am_1[2] c_am_1[3] c_am_2[1] c_am_2[2] c_am_2[3] c_i_1[1] c_i_1[2] c_i_1[3] c_i_2[1] c_i_2[2] c_i_2[3] 
-105.638 -54.5103 -65.3211 -104.387 -53.4124 -66.7633 -0.544068 -0.00418068 0.0823877 0.453102 -0.768228 0.32474 0.00461155 -0.00570376 0.0855865 0.996304 -0.0528124 0.0518965 -0.170853 0.98251 0.336652 0.343354 -0.497567 -0.00660968 0.897677 0.348254 1.02597 1.04545 -3.00623 0.131719 2.80168 2.29356 3 3 6 3 3 6 
ITEM: TIMESTEP
114000
ITEM: NUMBER OF ENTRIES
1
ITEM: BOX BOUNDS pp pp pp
-25 29
-25 25
-25 25
ITEM: ENTRIES c_com_1[1] c_com_1[2] c_com_1[3] c_com_2[1] c_com_2[2] c_com_2[3] c_vel_1[1] c_vel_1[2] c_vel_1[3] c_vel_2[1] c_vel_2[2] c_vel_2[3] c_q_1[1] c_q_1[2] c_q_1[3] c_q_1[4] c_q_2[1] c_q_2[2] c_q_2[3] c_q_2[4] c_av_1[1] c_av_1[2] c_av_1[3] c_av_2[1] c_av_2[2] c_av_2[3] c_am_1[1] c_am_1[2] c_am_1[3] c_am_2[1] c_am_2[2] c_am_2[3] c_i_1[1] c_i_1[2] c_i_1[3] c_i_2[1] c_i_2[2] c_i_2[3] 
-105.644 -54.5103 -65.3203 -104.382 -53.4201 -66.76 -0.5421 -0.00246756 0.0801313 0.451134 -0.769941 0.326997 0.00642518 -0.00415338 0.0830899 0.996513 -0.0537103 0.0562061 -0.168904 0.982562 0.338351 0.341673 -0.497571 -0.0102173 0.89746 0.348726 1.02597 1.04545 -3.00623 0.131719 2.80168 2.29356 3 3 6 3 3 6 
ITEM: TIMESTEP
115000
ITEM: NUMBER OF ENTRIES
1
ITEM: BOX BOUNDS pp pp pp
-25 29
-25 25
-25 25
ITEM: ENTRIES c_com_1[1] c_com_1[2] c_com_1[3] c_com_2[1] c_com_2[2] c_com_2[3] c_vel_1[1] c_vel_1[2] c_vel_1[3] c_vel_2[1] c_vel_2[2] c_vel_2[3] c_q_1[1] c_q_1[2] c_q_1[3] c_q_1[4] c_q_2[1] c_q_2[2] c_q_2[3] c_q_2[4] c_av_1[1] c_av_1[2] c_av_1[3] c_av_2[1] c_av_2[2] c_av_2[3] c_am_1[1] c_am_1[2] c_am_1[3] c_am_2[1] c_am_2[2] c_am_2[3] c_i_1[1] c_i_1[2] c_i_1[3] c_i_2[1] c_i_2[2] c_i_2[3] 
-105.649 -54.5103 -65.3195 -104.378 -53.4278 -66.7567 -0.540115 -0.000764346 0.0778759 0.449149 -0.771644 0.329252 0.00824646 -0.00261207 0.0805922 0.99671 -0.0546246 0.06051 -0.16695 0.98259 0.340032 0.339976 -0.497588 -0.0138186 0.897215 0.349232 1.02597 1.04545 -3.00623 0.131719 2.80168 2.29356 3 3 6 3 3 6 
ITEM: TIMESTEP
116000
ITEM: NUMBER OF ENTRIES
1
ITEM: BOX BOUNDS pp pp pp
-25 29
-25 25
-25 25
ITEM: ENTRIES c_com_1[1] c_com_1[2] c_com_1[3] c_com_2[1] c_com_2[2] c_com_2[3] c_vel_1[1] c_vel_1[2] c_vel_1[3] c_vel_2[1] c_vel_2[2] c_vel_2[3] c_q_1[1] c_q_1[2] c_q_1[3] c_q_1[4] c_q_2[1] c_q_2[2] c_q_2[3] c_q_2[4] c_av_1[1] c_av_1[2] c_av_1[3] c_av_2[1] c_av_2[2] c_av_2[3] c_am_1[1] c_am_1[2] c_am_1[3] c_am_2[1] c_am_2[2] c_am_2[3] c_i_1[1] c_i_1[2] c_i_1[3] c_i_2[1] c_i_2[2] c_i_2[3] 
-105.654 -54.5103 -65.3187 -104.373 -53.4356 -66.7534 -0.538111 0.000928906 0.0756217 0.447145 -0.773337 0.331506 0.0100753 -0.00107991 0.0780934 0.996895 -0.0555553 0.0648081 -0.164991 0.982594 0.341696 0.338262 -0.497616 -0.017413 0.896942 0.349772 1.02597 1.04545 -3.00623 0.131719 2.80168 2.29356 3 3 6 3 3 6 
ITEM: TIMESTEP
117000
ITEM: NUMBER OF ENTRIES
1
ITEM: BOX BOUNDS pp pp pp
-25 29
-25 25
-25 25
ITEM: ENTRIES c_com_1[1] c_com_1[2] c_com_1[3] c_com_2[1] c_com_2[2] c_com_2[3] c_vel_1[1] c_vel_1[2] c_vel_1[3] c_vel_2[1] c_vel_2[2] c_vel_2[3] c_q_1[1] c_q_1[2] c_q_1[3] c_q_1[4] c_q_2[1] c_q_2[2] c_q_2[3] c_q_2[4] c_av_1[1] c_av_1[2] c_av_1[3] c_av_2[1] c_av_2[2] c_av_2[3] c_am_1[1] c_am_1[2] c_am_1[3] c_am_2[1] c_am_2[2] c_am_2[3] c_i_1[1] c_i_1[2] c_i_1[3] c_i_2[1] c_i_2[2] c_i_2[3] 
-105.66 -54.5103 -65.318 -104.369 -53.4433 -66.7501 -0.536089 0.00261215 0.0733686 0.445123 -0.77502 0.33376 0.0119116 0.000443038 0.0755937 0.997067 -0.0565022 0.0691002 -0.163026 0.982576 0.343343 0.336532 -0.497656 -0.021 0.896642 0.350345 1.02597 1.04545 -3.00623 0.131719 2.80168 2.29356 3 3 6 3 3 6 
ITEM: TIMESTEP
118000
ITEM: NUMBER OF ENTRIES
1
ITEM: BOX BOUNDS pp pp pp
-25 29
-25 25
-25 25
ITEM: ENTRIES c_com_1[1] c_com_1[2] c_com_1[3] c_com_2[1] c_com_2[2] c_com_2[3] c_vel_1[1] c_vel_1[2] c_vel_1[3] c_vel_2[1] c_vel_2[2] c_vel_2[3] c_q_1[1] c_q_1[2] c_q_1[3] c_q_1[4] c_q_2[1] c_q_2[2] c_q_2[3] c_q_2[4] c_av_1[1] c_av_1[2] c_av_1[3] c_av_2[1] c_av_2[2] c_av_2[3] c_am_1[1] c_am_1[2] c_am_1[3] c_am_2[1] c_am_2[2] c_am_2[3] c_i_1[1] c_i_1[2] c_i_1[3] c_i_2[1] c_i_2[2] c_i_2[3] 
-105.665 -54.5103 -65.3172 -104.364 -53.4511 -66.7468 -0.53405 0.00428535 0.0711167 0.443083 -0.776694 0.336011 0.0137552 0.00195669 0.0730929 0.997228 -0.0574654 0.073386 -0.161056 0.982534 0.344972 0.334785 -0.497707 -0.0245791 0.896313 0.350952 1.02597 1.04545 -3.00623 0.131719 2.80168 2.29356 3 3 6 3 3 6 
ITEM: TIMESTEP
119000
ITEM: NUMBER OF ENTRIES
1
ITEM: BOX BOUNDS pp pp pp
-25 29
-25 25
-25 25
ITEM: ENTRIES c_com_1[1] c_com_1[2] c_com_1[3] c_com_2[1] c_com_2[2] c_com_2[3] c_vel_1[1] c_vel_1[2] c_vel_1[3] c_vel_2[1] c_vel_2[2] c_vel_2[3] c_q_1[1] c_q_1[2] c_q_1[3] c_q_1[4] c_q_2[1] c_q_2[2] c_q_2[3] c_q_2[4] c_av_1[1] c_av_1[2] c_av_1[3] c_av_2[1] c_av_2[2] c_av_2[3] c_am_1[1] c_am_1[2] c_am_1[3] c_am_2[1] c_am_2[2] c_am_2[3] c_i_1[1] c_i_1[2] c_i_1[3] c_i_2[1] c_i_2[2] c_i_2[3] 
-105.67 -54.5102 -65.3165 -104.36 -53.4588 -66.7434 -0.531992 0.00594844 0.068866 0.441025 -0.778357 0.338262 0.0156061 0.00346097 0.0705911 0.997377 -0.0584448 0.0776654 -0.159081 0.982469 0.346584 0.333022 -0.49777 -0.0281498 0.895958 0.351591 1.02597 1.04545 -3.00623 0.131719 2.80168 2.29356 3 3 6 3 3 6 
ITEM: TIMESTEP
120000
ITEM: NUMBER OF ENTRIES
1
ITEM: BOX BOUNDS pp pp pp
-25 29
-25 25
-25 25
ITEM: ENTRIES c_com_1[1] c_com_1[2] c_com_1[3] c_com_2[1] c_com_2[2] c_com_2[3] c_vel_1[1] c_vel_1[2] c_vel_1[3] c_vel_2[1] c_vel_2[2] c_vel_2[3] c_q_1[1] c_q_1[2] c_q_1[3] c_q_1[4] c_q_2[1] c_q_2[2] c_q_2[3] c_q_2[4] c_av_1[1] c_av_1[2] c_av_1[3] c_av_2[1] c_av_2[2] c_av_2[3] c_am_1[1] c_am_1[2] c_am_1[3] c_am_2[1] c_am_2[2] c_am_2[3] c_i_1[1] c_i_1[2] c_i_1[3] c_i_2[1] c_i_2[2] c_i_2[3] 
-105.676 -54.5102 -65.3159 -104.355 -53.4666 -66.74 -0.529916 0.00760138 0.0666166 0.438949 -0.78001 0.340512 0.0174642 0.00495581 0.0680883 0.997514 -0.0594403 0.0819382 -0.1571 0.982381 0.348177 0.331244 -0.497845 -0.0317116 0.895574 0.352264 1.02597 1.04545 -3.00623 0.131719 2.80168 2.29356 3 3 6 3 3 6 
ITEM: TIMESTEP
121000
ITEM: NUMBER OF ENTRIES
1
ITEM: BOX BOUNDS pp pp pp
-25 29
-25 25
-25 25
ITEM: ENTRIES c_com_1[1] c_com_1[2] c_com_1[3] c_com_2[1] c_com_2[2] c_com_2[3] c_vel_1[1] c_vel_1[2] c_vel_1[3] c_vel_2[1] c_vel_2[2] c_vel_2[3] c_q_1[1] c_q_1[2] c_q_1[3] c_q_1[4] c_q_2[1] c_q_2[2] c_q_2[3] c_q_2[4] c_av_1[1] c_av_1[2] c_av_1[3] c_av_2[1] c_av_2[2] c_av_2[3] c_am_1[1] c_am_1[2] c_am_1[3] c_am_2[1] c_am_2[2] c_am_2[3] c_i_1[1] c_i_1[2] c_i_1[3] c_i_2[1] c_i_2[2] c_i_2[3] 
-105.681 -54.5101 -65.3152 -104.351 -53.4744 -66.7366 -0.527822 0.00924412 0.0643684 0.436855 -0.781652 0.34276 0.0193294 0.00644114 0.0655845 0.997639 -0.0604519 0.0862041 -0.155114 0.98227 0.349752 0.329449 -0.497931 -0.0352638 0.895163 0.35297 1.02597 1.04545 -3.00623 0.131719 2.80168 2.29356 3 3 6 3 3 6 
ITEM: TIMESTEP
122000
ITEM: NUMBER OF ENTRIES
1
ITEM: BOX BOUNDS pp pp pp
-25 29
-25 25
-25 25
ITEM: ENTRIES c_com_1[1] c_com_1[2] c_com_1[3] c_com_2[1] c_com_2[2] c_com_2[3] c_vel_1[1] c_vel_1[2] c_vel_1[3] c_vel_2[1] c_vel_2[2] c_vel_2[3] c_q_1[1] c_q_1[2] c_q_1[3] c_q_1[4] c_q_2[1] c_q_2[2] c_q_2[3] c_q_2[4] c_av_1[1] c_av_1[2] c_av_1[3] c_av_2[1] c_av_2[2] c_av_2[3] c_am_1[1] c_am_1[2] c_am_1[3] c_am_2[1] c_am_2[2] c_am_2[3] c_i_1[1] c_i_1[2] c_i_1[3] c_i_2[1] c_i_2[2] c_i_2[3] 
-105.686 -54.51 -65.3146 -104.347 -53.4823 -66.7331 -0.525709 0.0108766 0.0621216 0.434743 -0.783285 0.345007 0.0212016 0.00791687 0.0630796 0.997752 -0.0614795 0.090463 -0.153122 0.982136 0.351309 0.32764 -0.498029 -0.0388061 0.894725 0.353709 1.02597 1.04545 -3.00623 0.131719 2.80168 2.29356 3 3 6 3 3 6 
ITEM: TIMESTEP
123000
ITEM: NUMBER OF ENTRIES
1
ITEM: BOX BOUNDS pp pp pp
-25 29
-25 25
-25 25
ITEM: ENTRIES c_com_1[1] c_com_1[2] c_com_1[3] c_com_2[1] c_com_2[2] c_com_2[3] c_vel_1[1] c_vel_1[2] c_vel_1[3] c_vel_2[1] c_vel_2[2] c_vel_2[3] c_q_1[1] c_q_1[2] c_q_1[3] c_q_1[4] c_q_2[1] c_q_2[2] c_q_2[3] c_q_2[4] c_av_1[1] c_av_1[2] c_av_1[3] c_av_2[1] c_av_2[2] c_av_2[3] c_am_1[1] c_am_1[2] c_am_1[3] c_am_2[1] c_am_2[2] c_am_2[3] c_i_1[1] c_i_1[2] c_i_1[3] c_i_2[1] c_i_2[2] c_i_2[3] 
-105.692 -54.5099 -65.314 -104.342 -53.4901 -66.7297 -0.523579 0.0124987 0.0598761 0.432613 -0.784907 0.347252 0.0230807 0.00938295 0.0605737 0.997853 -0.062523 0.0947146 -0.151125 0.981978 0.352848 0.325815 -0.498139 -0.0423378 0.89426 0.354481 1.02597 1.04545 -3.00623 0.131719 2.80168 2.29356 3 3 6 3 3 6 
ITEM: TIMESTEP
124000
ITEM: NUMBER OF ENTRIES
1
ITEM: BOX BOUNDS pp pp pp
-25 29
-25 25
-25 25
ITEM: ENTRIES c_com_1[1] c_com_1[2] c_com_1[3] c_com_2[1] c_com_2[2] c_com_2[3] c_vel_1[1] c_vel_1[2] c_vel_1[3] c_vel_2[1] c_vel_2[2] c_vel_2[3] c_q_1[1] c_q_1[2] c_q_1[3] c_q_1[4] c_q_2[1] c_q_2[2] c_q_2[3] c_q_2[4] c_av_1[1] c_av_1[2] c_av_1[3] c_av_2[1] c_av_2[2] c_av_2[3] c_am_1[1] c_am_1[2] c_am_1[3] c_am_2[1] c_am_2[2] c_am_2[3] c_i_1[1] c_i_1[2] c_i_1[3] c_i_2[1] c_i_2[2] c_i_2[3] 
-105.697 -54.5097 -65.3134 -104.338 -53.498 -66.7262 -0.52143 0.0141105 0.057632 0.430464 -0.786519 0.349496 0.0249666 0.0108393 0.0580668 0.997942 -0.0635824 0.0989587 -0.149123 0.981798 0.354367 0.323975 -0.49826 -0.0458586 0.893767 0.355285 1.02597 1.04545 -3.00623 0.131719 2.80168 2.29356 3 3 6 3 3 6 
ITEM: TIMESTEP
125000
ITEM: NUMBER OF ENTRIES
1
ITEM: BOX BOUNDS pp pp pp
-25 29
-25 25
-25 25
ITEM: ENTRIES c_com_1[1] c_com_1[2] c_com_1[3] c_com_2[1] c_com_2[2] c_com_2[3] c_vel_1[1] c_vel_1[2] c_vel_1[3] c_vel_2[1] c_vel_2[2] c_vel_2[3] c_q_1[1] c_q_1[2] c_q_1[3] c_q_1[4] c_q_2[1] c_q_2[2] c_q_2[3] c_q_2[4] c_av_1[1] c_av_1[2] c_av_1[3] c_av_2[1] c_av_2[2] c_av_2[3] c_am_1[1] c_am_1[2] c_am_1[3] c_am_2[1] c_am_2[2] c_am_2[3] c_i_1[1] c_i_1[2] c_i_1[3] c_i_2[1] c_i_2[2] c_i_2[3] 
-105.702 -54.5096 -65.3128 -104.334 -53.5058 -66.7227 -0.519264 0.0157119 0.0553894 0.428297 -0.78812 0.351739 0.0268592 0.0122858 0.0555589 0.998018 -0.0646576 0.103195 -0.147114 0.981594 0.355868 0.322121 -0.498393 -0.0493678 0.893246 0.356122 1.02597 1.04545 -3.00623 0.131719 2.80168 2.29356 3 3 6 3 3 6 
ITEM: TIMESTEP
126000
ITEM: NUMBER OF ENTRIES
1
ITEM: BOX BOUNDS pp pp pp
-25 29
-25 25
-25 25
ITEM: ENTRIES c_com_1[1] c_com_1[2] c_com_1[3] c_com_2[1] c_com_2[2] c_com_2[3] c_vel_1[1] c_vel_1[2] c_vel_1[3] c_vel_2[1] c_vel_2[2] c_vel_2[3] c_q_1[1] c_q_1[2] c_q_1[3] c_q_1[4] c_q_2[1] c_q_2[2] c_q_2[3] c_q_2[4] c_av_1[1] c_av_1[2] c_av_1[3] c_av_2[1] c_av_2[2] c_av_2[3] c_am_1[1] c_am_1[2] c_am_1[3] c_am_2[1] c_am_2[2] c_am_2[3] c_i_1[1] c_i_1[2] c_i_1[3] c_i_2[1] c_i_2[2] c_i_2[3] 
-105.707 -54.5094 -65.3123 -104.329 -53.5137 -66.7192 -0.517079 0.0173027 0.0531482 0.426112 -0.789711 0.35398 0.0287584 0.0137225 0.05305 0.998083 -0.0657486 0.107424 -0.1451 0.981368 0.357349 0.320252 -0.498537 -0.0528649 0.892699 0.356991 1.02597 1.04545 -3.00623 0.131719 2.80168 2.29356 3 3 6 3 3 6 
ITEM: TIMESTEP
127000
ITEM: NUMBER OF ENTRIES
1
ITEM: BOX BOUNDS pp pp pp
-25 29
-25 25
-25 25
ITEM: ENTRIES c_com_1[1] c_com_1[2] c_com_1[3] c_com_2[1] c_com_2[2] c_com_2[3] c_vel_1[1] c_vel_1[2] c_vel_1[3] c_vel_2[1] c_vel_2[2] c_vel_2[3] c_q_1[1] c_q_1[2] c_q_1[3] c_q_1[4] c_q_2[1] c_q_2[2] c_q_2[3] c_q_2[4] c_av_1[1] c_av_1[2] c_av_1[3] c_av_2[1] c_av_2[2] c_av_2[3] c_am_1[1] c_am_1[2] c_am_1[3] c_am_2[1] c_am_2[2] c_am_2[3] c_i_1[1] c_i_1[2] c_i_1[3] c_i_2[1] c_i_2[2] c_i_2[3] 
-105.712 -54.5092 -65.3118 -104.325 -53.5216 -66.7156 -0.514876 0.018883 0.0509086 0.423909 -0.791291 0.356219 0.0306641 0.0151493 0.05054 0.998136 -0.0668552 0.111644 -0.143081 0.981119 0.358811 0.318369 -0.498693 -0.0563495 0.892125 0.357893 1.02597 1.04545 -3.00623 0.131719 2.80168 2.29356 3 3 6 3 3 6 
ITEM: TIMESTEP
128000
ITEM: NUMBER OF ENTRIES
1
ITEM: BOX BOUNDS pp pp pp
-25 29
-25 25
-25 25
ITEM: ENTRIES c_com_1[1] c_com_1[2] c_com_1[3] c_com_2[1] c_com_2[2] c_com_2[3] c_vel_1[1] c_vel_1[2] c_vel_1[3] c_vel_2[1] c_vel_2[2] c_vel_2[3] c_q_1[1] c_q_1[2] c_q_1[3] c_q_1[4] c_q_2[1] c_q_2[2] c_q_2[3] c_q_2[4] c_av_1[1] c_av_1[2] c_av_1[3] c_av_2[1] c_av_2[2] c_av_2[3] c_am_1[1] c_am_1[2] c_am_1[3] c_am_2[1] c_am_2[2] c_am_2[3] c_i_1[1] c_i_1[2] c_i_1[3] c_i_2[1] c_i_2[2] c_i_2[3] 
-105.717 -54.509 -65.3113 -104.321 -53.5295 -66.712 -0.512654 0.0204527 0.0486707 0.421688 -0.792861 0.358457 0.0325762 0.016566 0.0480291 0.998177 -0.0679775 0.115857 -0.141055 0.980846 0.360254 0.316472 -0.49886 -0.059821 0.891523 0.358827 1.02597 1.04545 -3.00623 0.131719 2.80168 2.29356 3 3 6 3 3 6 
ITEM: TIMESTEP
129000
ITEM: NUMBER OF ENTRIES
1
ITEM: BOX BOUNDS pp pp pp
-25 29
-25 25
-25 25
ITEM: ENTRIES c_com_1[1] c_com_1[2] c_com_1[3] c_com_2[1] c_com_2[2] c_com_2[3] c_vel_1[1] c_vel_1[2] c_vel_1[3] c_vel_2[1] c_vel_2[2] c_vel_2[3] c_q_1[1] c_q_1[2] c_q_1[3] c_q_1[4] c_q_2[1] c_q_2[2] c_q_2[3] c_q_2[4] c_av_1[1] c_av_1[2] c_av_1[3] c_av_2[1] c_av_2[2] c_av_2[3] c_am_1[1] c_am_1[2] c_am_1[3] c_am_2[1] c_am_2[2] c_am_2[3] c_i_1[1] c_i_1[2] c_i_1[3] c_i_2[1] c_i_2[2] c_i_2[3] 
-105.723 -54.5088 -65.3108 -104.317 -53.5375 -66.7084 -0.510415 0.0220116 0.0464344 0.419448 -0.79442 0.360694 0.0344947 0.0179727 0.0455171 0.998206 -0.0691152 0.12006 -0.139024 0.980551 0.361677 0.314561 -0.499039 -0.063279 0.890895 0.359793 1.02597 1.04545 -3.00623 0.131719 2.80168 2.29356 3 3 6 3 3 6 
ITEM: TIMESTEP
130000
ITEM: NUMBER OF ENTRIES
1
ITEM: BOX BOUNDS pp pp pp
-25 29
-25 25
-25 25
ITEM: ENTRIES c_com_1[1] c_com_1[2] c_com_1[3] c_com_2[1] c_com_2[2] c_com_2[3] c_vel_1[1] c_vel_1[2] c_vel_1[3] c_vel_2[1] c_vel_2[2] c_vel_2[3] c_q_1[1] c_q_1[2] c_q_1[3] c_q_1[4] c_q_2[1] c_q_2[2] c_q_2[3] c_q_2[4] c_av_1[1] c_av_1[2] c_av_1[3] c_av_2[1] c_av_2[2] c_av_2[3] c_am_1[1] c_am_1[2] c_am_1[3] c_am_2[1] c_am_2[2] c_am_2[3] c_i_1[1] c_i_1[2] c_i_1[3] c_i_2[1] c_i_2[2] c_i_2[3] 
-105.728 -54.5086 -65.3103 -104.312 -53.5454 -66.7048 -0.508157 0.0235599 0.0441998 0.417191 -0.795968 0.362928 0.0364193 0.0193692 0.0430041 0.998223 -0.0702684 0.124256 -0.136988 0.980233 0.36308 0.312637 -0.499229 -0.0667228 0.89024 0.360791 1.02597 1.04545 -3.00623 0.131719 2.80168 2.29356 3 3 6 3 3 6 
ITEM: TIMESTEP
131000
ITEM: NUMBER OF ENTRIES
1
ITEM: BOX BOUNDS pp pp pp
-25 29
-25 25
-25 25
ITEM: ENTRIES c_com_1[1] c_com_1[2] c_com_1[3] c_com_2[1] c_com_2[2] c_com_2[3] c_vel_1[1] c_vel_1[2] c_vel_1[3] c_vel_2[1] c_vel_2[2] c_vel_2[3] c_q_1[1] c_q_1[2] c_q_1[3] c_q_1[4] c_q_2[1] c_q_2[2] c_q_2[3] c_q_2[4] c_av_1[1] c_av_1[2] c_av_1[3] c_av_2[1] c_av_2[2] c_av_2[3] c_am_1[1] c_am_1[2] c_am_1[3] c_am_2[1] c_am_2[2] c_am_2[3] c_i_1[1] c_i_1[2] c_i_1[3] c_i_2[1] c_i_2[2] c_i_2[3] 
-105.733 -54.5084 -65.3099 -104.308 -53.5534 -66.7012 -0.505881 0.0250973 0.0419669 0.414915 -0.797506 0.365161 0.0383501 0.0207555 0.0404901 0.998228 -0.0714371 0.128442 -0.134945 0.979892 0.364463 0.310699 -0.499431 -0.0701521 0.889558 0.361821 1.02597 1.04545 -3.00623 0.131719 2.80168 2.29356 3 3 6 3 3 6 
ITEM: TIMESTEP
132000
ITEM: NUMBER OF ENTRIES
1
ITEM: BOX BOUNDS pp pp pp
-25 29
-25 25
-25 25
ITEM: ENTRIES c_com_1[1] c_com_1[2] c_com_1[3] c_com_2[1] c_com_2[2] c_com_2[3] c_vel_1[1] c_vel_1[2] c_vel_1[3] c_vel_2[1] c_vel_2[2] c_vel_2[3] c_q_1[1] c_q_1[2] c_q_1[3] c_q_1[4] c_q_2[1] c_q_2[2] c_q_2[3] c_q_2[4] c_av_1[1] c_av_1[2] c_av_1[3] c_av_2[1] c_av_2[2] c_av_2[3] c_am_1[1] c_am_1[2] c_am_1[3] c_am_2[1] c_am_2[2] c_am_2[3] c_i_1[1] c_i_1[2] c_i_1[3] c_i_2[1] c_i_2[2] c_i_2[3] 
-105.738 -54.5081 -65.3095 -104.304 -53.5614 -66.6975 -0.503587 0.0266238 0.0397359 0.412621 -0.799032 0.367392 0.0402869 0.0221315 0.0379751 0.998221 -0.072621 0.132619 -0.132897 0.979529 0.365826 0.308749 -0.499644 -0.0735663 0.888849 0.362883 1.02597 1.04545 -3.00623 0.131719 2.80168 2.29356 3 3 6 3 3 6 
ITEM: TIMESTEP
133000
ITEM: NUMBER OF ENTRIES
1
ITEM: BOX BOUNDS pp pp pp
-25 29
-25 25
-25 25
ITEM: ENTRIES c_com_1[1] c_com_1[2] c_com_1[3] c_com_2[1] c_com_2[2] c_com_2[3] c_vel_1[1] c_vel_1[2] c_vel_1[3] c_vel_2[1] c_vel_2[2] c_vel_2[3] c_q_1[1] c_q_1[2] c_q_1[3] c_q_1[4] c_q_2[1] c_q_2[2] c_q_2[3] c_q_2[4] c_av_1[1] c_av_1[2] c_av_1[3] c_av_2[1] c_av_2[2] c_av_2[3] c_am_1[1] c_am_1[2] c_am_1[3] c_am_2[1] c_am_2[2] c_am_2[3] c_i_1[1] c_i_1[2] c_i_1[3] c_i_2[1] c_i_2[2] c_i_2[3] 
-105.743 -54.5078 -65.3091 -104.3 -53.5694 -66.6938 -0.501275 0.0281393 0.0375068 0.410308 -0.800548 0.369621 0.0422297 0.0234972 0.0354592 0.998202 -0.0738201 0.136787 -0.130843 0.979143 0.367169 0.306785 -0.499869 -0.076965 0.888114 0.363976 1.02597 1.04545 -3.00623 0.131719 2.80168 2.29356 3 3 6 3 3 6 
ITEM: TIMESTEP
134000
ITEM: NUMBER OF ENTRIES
1
ITEM: BOX BOUNDS pp pp pp
-25 29
-25 25
-25 25
ITEM: ENTRIES c_com_1[1] c_com_1[2] c_com_1[3] c_com_2[1] c_com_2[2] c_com_2[3] c_vel_1[1] c_vel_1[2] c_vel_1[3] c_vel_2[1] c_vel_2[2] c_vel_2[3] c_q_1[1] c_q_1[2] c_q_1[3] c_q_1[4] c_q_2[1] c_q_2[2] c_q_2[3] c_q_2[4] c_av_1[1] c_av_1[2] c_av_1[3] c_av_2[1] c_av_2[2] c_av_2[3] c_am_1[1] c_am_1[2] c_am_1[3] c_am_2[1] c_am_2[2] c_am_2[3] c_i_1[1] c_i_1[2] c_i_1[3] c_i_2[1] c_i_2[2] c_i_2[3] 
-105.748 -54.5075 -65.3087 -104.296 -53.5774 -66.6901 -0.498944 0.0296438 0.0352796 0.407978 -0.802052 0.371849 0.0441782 0.0248526 0.0329422 0.998171 -0.0750345 0.140946 -0.128783 0.978733 0.368491 0.304809 -0.500105 -0.0803475 0.887353 0.3651 1.02597 1.04545 -3.00623 0.131719 2.80168 2.29356 3 3 6 3 3 6 
ITEM: TIMESTEP
135000
ITEM: NUMBER OF ENTRIES
1
ITEM: BOX BOUNDS pp pp pp
-25 29
-25 25
-25 25
ITEM: ENTRIES c_com_1[1] c_com_1[2] c_com_1[3] c_com_2[1] c_com_2[2] c_com_2[3] c_vel_1[1] c_vel_1[2] c_vel_1[3] c_vel_2[1] c_vel_2[2] c_vel_2[3] c_q_1[1] c_q_1[2] c_q_1[3] c_q_1[4] c_q_2[1] c_q_2[2] c_q_2[3] c_q_2[4] c_av_1[1] c_av_1[2] c_av_1[3] c_av_2[1] c_av_2[2] c_av_2[3] c_am_1[1] c_am_1[2] c_am_1[3] c_am_2[1] c_am_2[2] c_am_2[3] c_i_1[1] c_i_1[2] c_i_1[3] c_i_2[1] c_i_2[2] c_i_2[3] 
-105.753 -54.5072 -65.3084 -104.292 -53.5854 -66.6864 -0.496584 0.0312086 0.0333784 0.405618 -0.803617 0.37375 0.0461329 0.0261964 0.0304243 0.998128 -0.0762629 0.145094 -0.126717 0.978302 0.370087 0.302136 -0.50032 -0.0831188 0.886109 0.366232 1.02687 1.04337 -3.0058 0.133597 2.80034 2.29379 3 3 6 3 3 6 
ITEM: TIMESTEP
136000
ITEM: NUMBER OF ENTRIES
1
ITEM: BOX BOUNDS pp pp pp
-25 29
-25 25
-25 25
ITEM: ENTRIES c_com_1[1] c_com_1[2] c_com_1[3] c_com_2[1] c_com_2[2] c_com_2[3] c_vel_1[1] c_vel_1[2] c_vel_1[3] c_vel_2[1] c_vel_2[2] c_vel_2[3] c_q_1[1] c_q_1[2] c_q_1[3] c_q_1[4] c_q_2[1] c_q_2[2] c_q_2[3] c_q_2[4] c_av_1[1] c_av_1[2] c_av_1[3] c_av_2[1] c_av_2[2] c_av_2[3] c_am_1[1] c_am_1[2] c_am_1[3] c_am_2[1] c_am_2[2] c_am_2[3] c_i_1[1] c_i_1[2] c_i_1[3] c_i_2[1] c_i_2[2] c_i_2[3] 
-105.758 -54.5069 -65.3081 -104.288 -53.5935 -66.6827 -0.494186 0.0329615 0.0323483 0.40322 -0.80537 0.37478 0.0480963 0.0275217 0.0279062 0.998073 -0.0774989 0.149228 -0.124644 0.977849 0.372438 0.297612 -0.500448 -0.0842735 0.883635 0.367337 1.03018 1.03568 -3.00414 0.140551 2.79548 2.29471 3 3 6 3 3 6 
ITEM: TIMESTEP
137000
ITEM: NUMBER OF ENTRIES
1
ITEM: BOX BOUNDS pp pp pp
-25 29
-25 25
-25 25
ITEM: ENTRIES c_com_1[1] c_com_1[2] c_com_1[3] c_com_2[1] c_com_2[2] c_com_2[3] c_vel_1[1] c_vel_1[2] c_vel_1[3] c_vel_2[1] c_vel_2[2] c_vel_2[3] c_q_1[1] c_q_1[2] c_q_1[3] c_q_1[4] c_q_2[1] c_q_2[2] c_q_2[3] c_q_2[4] c_av_1[1] c_av_1[2] c_av_1[3] c_av_2[1] c_av_2[2] c_av_2[3] c_am_1[1] c_am_1[2] c_am_1[3] c_am_2[1] c_am_2[2] c_am_2[3] c_i_1[1] c_i_1[2] c_i_1[3] c_i_2[1] c_i_2[2] c_i_2[3] 