
# Simulation Parameters
variable log_freq equal 1000                   # log frequency
variable runsteps equal 1000000              # N of steps to run for
variable timestep equal 0.00001                # timestep

# -------------------------- ATOMS/MOLECULE DEFINITION --------------------------
read_data hex.conf                              # Add a hexagon molecule
  orthogonal box = (-25 -25 -25) to (25 25 25)
  1 by 1 by 1 MPI processor grid
  reading atoms ...
  7 atoms
  scanning bonds ...
  6 = max bonds/atom
  scanning angles ...
  6 = max angles/atom
  reading bonds ...
  12 bonds
  reading angles ...
  11 angles
  6 = max # of 1-2 neighbors
  12 = max # of 1-3 neighbors
  36 = max # of 1-4 neighbors
  6 = max # of special neighbors
  special bonds CPU = 0.0001919 secs
  read_data CPU = 0.0049755 secs
read_data hex.conf add append shift 4.0 0.0 0.0 # Add a second identical molecule, shifted so it doesn't overlap
  orthogonal box = (-25 -25 -25) to (29 25 25)
  1 by 1 by 1 MPI processor grid
  reading atoms ...
  7 atoms
  scanning bonds ...
  6 = max bonds/atom
  scanning angles ...
  6 = max angles/atom
  reading bonds ...
  12 bonds
  reading angles ...
  11 angles
  6 = max # of 1-2 neighbors
  12 = max # of 1-3 neighbors
  36 = max # of 1-4 neighbors
  6 = max # of special neighbors
  special bonds CPU = 0.0002522 secs
  read_data CPU = 0.0034911 secs

# Group ID can be used in other commands, including fix, compute, dump or velocity
group       hex_1 id 1 2 3 4 5 6 7              # label the atoms 1-7 as a group
7 atoms in group hex_1
group       hex_2 id 8 9 10 11 12 13 14         # label the atoms 8-14 as another group
7 atoms in group hex_2

# -------------------------- INTERATOMIC POTENTIALS -----------------------------
# Pairwise potentials
pair_style  lj/cut  ${cut}                      # lj truncated - cutoff at 1.12 sigma
pair_style  lj/cut  1.12246                      
pair_coeff  *   *   1.0 ${sigma}                # epsilon | sigma - * * means all atoms interact with each other
pair_coeff  *   *   1.0 1                
fix hex_spring_NVT hex_1 spring couple hex_2 1.0 0.0 0.0 0.0 ${r0} # adds harmonic spring between rigid bodies
fix hex_spring_NVT hex_1 spring couple hex_2 1.0 0.0 0.0 0.0 2 
                            # f_hex_spring[1,2,3,4] = force_x, force_y, force_z, magnitude of the force


################## SYSTEM INITIALISATION WITH AN NVT SIMULATION ##################
# -------------------------------------------------------------------------------
# Add energy to the system by running an NVT simulation, use a very stiff spring to
# keep rigid bodies close. Then, remove (unfix) the thermostat and spring before
# initialising and running the more important NVE simulation
# -------------------------------------------------------------------------------

# System fixes: spring and nose-hoover thermostat
fix hex_spring_NVT hex_1 spring couple hex_2 1 0 0 0 ${r0} # adds harmonic spring between RBs
fix hex_spring_NVT hex_1 spring couple hex_2 1 0 0 0 2 
fix rigid_1_NVT hex_1 rigid/nvt/small molecule temp ${temp} ${temp} 1.0 tparam 10 3 3
fix rigid_1_NVT hex_1 rigid/nvt/small molecule temp 1.5 ${temp} 1.0 tparam 10 3 3
fix rigid_1_NVT hex_1 rigid/nvt/small molecule temp 1.5 1.5 1.0 tparam 10 3 3
  create bodies CPU = 8.4e-06 secs
1 rigid bodies with 7 atoms
  1 = max distance from body owner to body atom
fix rigid_2_NVT hex_2 rigid/nvt/small molecule temp ${temp} ${temp} 1.0 tparam 10 3 3
fix rigid_2_NVT hex_2 rigid/nvt/small molecule temp 1.5 ${temp} 1.0 tparam 10 3 3
fix rigid_2_NVT hex_2 rigid/nvt/small molecule temp 1.5 1.5 1.0 tparam 10 3 3
  create bodies CPU = 5.5e-06 secs
1 rigid bodies with 7 atoms
  1 = max distance from body owner to body atom

# Basic output to terminal
thermo ${log_freq}
thermo 1000
thermo_style custom step f_hex_spring_NVT[*] temp pe ke etotal

# Set temperature and run simulation
velocity hex_1 create ${temp} ${seed}
velocity hex_1 create 1.5 ${seed}
velocity hex_1 create 1.5 5
WARNING: Changing velocities of atoms in rigid bodies. This has no effect unless rigid bodies are rebuild (src/velocity.cpp:71)
WARNING: Cannot count rigid body degrees-of-freedom before bodies are fully initialized (src/RIGID/fix_rigid_small.cpp:1157)
WARNING: Cannot count rigid body degrees-of-freedom before bodies are fully initialized (src/RIGID/fix_rigid_small.cpp:1157)
run 0
WARNING: Bonds are defined but no bond style is set (src/force.cpp:205)
WARNING: Likewise 1-2 special neighbor interactions != 1.0 (src/force.cpp:207)
WARNING: Angles are defined but no angle style is set (src/force.cpp:210)
WARNING: Likewise 1-3 special neighbor interactions != 1.0 (src/force.cpp:212)
WARNING: More than one fix rigid (src/RIGID/fix_rigid_small.cpp:561)
WARNING: More than one fix rigid (src/RIGID/fix_rigid_small.cpp:561)
Neighbor list info ...
  update every 1 steps, delay 10 steps, check yes
  max neighbors/atom: 2000, page size: 100000
  master list distance cutoff = 1.42246
  ghost atom cutoff = 1.42246
  binsize = 0.71123, bins = 76 71 71
  1 neighbor lists, perpetual/occasional/extra = 1 0 0
  (1) pair lj/cut, perpetual
      attributes: half, newton on
      pair build: half/bin/newton
      stencil: half/bin/3d/newton
      bin: standard
Per MPI rank memory allocation (min/avg/max) = 19.38 | 19.38 | 19.38 Mbytes
Step f_hex_spring_NVT[1] f_hex_spring_NVT[2] f_hex_spring_NVT[3] f_hex_spring_NVT[4] Temp PotEng KinEng TotEng 
       0   0.14285714            0            0   0.14285714  0.035116202            0  0.011287351  0.011287351 
Loop time of 4e-07 on 1 procs for 0 steps with 14 atoms

500.0% CPU use with 1 MPI tasks x no OpenMP threads

MPI task timing breakdown:
Section |  min time  |  avg time  |  max time  |%varavg| %total
---------------------------------------------------------------
Pair    | 0          | 0          | 0          |   0.0 |  0.00
Bond    | 0          | 0          | 0          |   0.0 |  0.00
Neigh   | 0          | 0          | 0          |   0.0 |  0.00
Comm    | 0          | 0          | 0          |   0.0 |  0.00
Output  | 0          | 0          | 0          |   0.0 |  0.00
Modify  | 0          | 0          | 0          |   0.0 |  0.00
Other   |            | 4e-07      |            |       |100.00

Nlocal:    14 ave 14 max 14 min
Histogram: 1 0 0 0 0 0 0 0 0 0
Nghost:    0 ave 0 max 0 min
Histogram: 1 0 0 0 0 0 0 0 0 0
Neighs:    0 ave 0 max 0 min
Histogram: 1 0 0 0 0 0 0 0 0 0

Total # of neighbors = 0
Ave neighs/atom = 0
Ave special neighs/atom = 6
Neighbor list builds = 0
Dangerous builds = 0
velocity all scale ${temp}
velocity all scale 1.5
WARNING: Changing velocities of atoms in rigid bodies. This has no effect unless rigid bodies are rebuild (src/velocity.cpp:71)
run 100000
WARNING: Bonds are defined but no bond style is set (src/force.cpp:205)
WARNING: Likewise 1-2 special neighbor interactions != 1.0 (src/force.cpp:207)
WARNING: Angles are defined but no angle style is set (src/force.cpp:210)
WARNING: Likewise 1-3 special neighbor interactions != 1.0 (src/force.cpp:212)
WARNING: More than one fix rigid (src/RIGID/fix_rigid_small.cpp:561)
WARNING: More than one fix rigid (src/RIGID/fix_rigid_small.cpp:561)
Per MPI rank memory allocation (min/avg/max) = 19.38 | 19.38 | 19.38 Mbytes
Step f_hex_spring_NVT[1] f_hex_spring_NVT[2] f_hex_spring_NVT[3] f_hex_spring_NVT[4] Temp PotEng KinEng TotEng 
       0   0.14285714            0            0   0.14285714          1.5            0   0.48214286   0.48214286 
    1000   0.21937313  0.022688636 -0.0054238383   0.22060998    1.4417064            0   0.46340563   0.46340563 
    2000   0.10633166   0.11656114  0.046814778   0.16457382    1.8262136            0   0.58699724   0.58699724 
    3000 -0.081089093  0.084705356   0.15043111   0.19073531    1.6189848            0   0.52038797   0.52038797 
    4000 -0.047448877 -0.082301883 -0.044906093   0.10507879    3.0431306            0   0.97814913   0.97814913 
    5000 0.0010190899 -0.00018650671 -0.00087753473 0.0013577173    2.1813587            0   0.70115101   0.70115101 
    6000  0.057445076    0.2627238  -0.15774697   0.31178172    1.9678563            0   0.63252525   0.63252525 
    7000 -0.038080679  0.070107073 0.0075935146  0.080142381    1.6397341            0   0.52705738   0.52705738 
    8000 -0.044216765   0.12318638   0.10498729   0.16778658     1.774237            0   0.57029047   0.57029047 
    9000  0.019488138 -0.0080436817   0.14130888   0.14287298   0.92939553            0   0.29873428   0.29873428 
   10000  0.041795237  -0.12145373  -0.11957221   0.17548608    1.0280219            0    0.3304356    0.3304356 
   11000 -0.037268745  0.073976059 -0.032590528  0.089014376    1.2816576            0   0.41196138   0.41196138 
   12000 -0.0059530279  0.058758183   0.18518279    0.1943724    3.9461174            0    1.2683949    1.2683949 
   13000  0.059180148  -0.13121962 -0.025331047    0.1461593   0.65547644            0   0.21068886   0.21068886 
   14000 -0.031933383  0.045762858 -0.088390074   0.10453126    2.1866206            0   0.70284233   0.70284233 
   15000   -0.1137733   0.22469459  0.058202037   0.25849468    2.0296251            0   0.65237951   0.65237951 
   16000 0.00044021524 -0.067180315    0.1370604   0.15263991    2.4113496            0   0.77507664   0.77507664 
   17000  0.012633135  -0.10217483 -0.061489981   0.11991793    2.6173111            0   0.84127858   0.84127858 
   18000 -0.0056739572 0.0010693359 -0.085972029  0.086165695    3.2880408            0    1.0568703    1.0568703 
   19000 -0.017001089   0.14449709   0.10046452   0.17680941    1.6833032            0   0.54106174   0.54106174 
   20000  0.022017771 -0.093759129   0.10652549   0.14360793    1.1911222            0   0.38286072   0.38286072 
   21000 0.0053628298 -0.073465588  -0.10238554    0.1261299    1.4729535            0   0.47344933   0.47344933 
   22000 -0.021529149   0.13888805  0.015494736   0.14139831     3.027689            0   0.97318574   0.97318574 
   23000 0.0065732894 -0.019493874   0.05327946  0.057113222     2.661308            0   0.85542044   0.85542044 
   24000  0.021193194  -0.18010477  -0.12524922   0.22039566    1.0533525            0   0.33857759   0.33857759 
   25000 -0.0097139056  0.030103137  -0.07568838  0.082032248    1.6380452            0   0.52651454   0.52651454 
   26000  -0.01170039   0.10862035  0.092369917   0.14306461    1.8179755            0   0.58434925   0.58434925 
   27000  0.026689003  -0.11249639   0.13223174   0.17565015    3.2260945            0    1.0369589    1.0369589 
   28000  -0.00517785 -0.052674396  -0.12115692   0.13221347    2.7091661            0   0.87080339   0.87080339 
   29000 -0.029211745  0.094273314 -0.098821604   0.13966565    2.0224181            0   0.65006295   0.65006295 
   30000 0.0017780639   0.04437067  0.077982776  0.089739797    1.2481896            0   0.40120381   0.40120381 
   31000  0.050924691  -0.19425329   0.13183852    0.2402271    1.0863338            0   0.34917873   0.34917873 
   32000 -0.035656309 -0.023484025 -0.033445076   0.05423509    3.1156707            0    1.0014656    1.0014656 
   33000  -0.12937046  0.040996908 -0.025462525   0.13807897    2.9908161            0   0.96133374   0.96133374 
   34000 -0.010889983  0.034100375    0.1827399   0.18621304    1.2206132            0   0.39233997   0.39233997 
   35000  0.095470929  -0.12305708   0.11071563    0.1910908   0.82899055            0   0.26646125   0.26646125 
   36000 -0.0095997766 -0.027520683 -0.036933589  0.047049269    1.9504564            0    0.6269324    0.6269324 
   37000 -0.0082171719 0.0070564156 -0.0044507945  0.011710017    1.4627475  -0.12236399   0.47016885   0.34780487 
   38000  -0.12555793  0.092050708   0.06475734   0.16861684    2.3431648            0   0.75316011   0.75316011 
   39000 -0.067171435 -0.057084945  0.053270192   0.10299712    2.8497328            0   0.91598553   0.91598553 
   40000  0.013476837 -0.039720535  0.012383878    0.0437345    2.6004663   -0.1102106   0.83586416   0.72565356 
   41000   0.07246319  -0.05673004  -0.04507391   0.10247375   0.94514172            0   0.30379555   0.30379555 
   42000  0.037220344  0.078136649  -0.10774347   0.13820038    1.4446767            0   0.46436036   0.46436036 
   43000 0.0066938987  0.039876696  0.025907706  0.048022582    1.5177839            0    0.4878591    0.4878591 
   44000  0.014272471 -0.0067483989   0.14577154   0.14662396     2.458873            0   0.79035205   0.79035205 
   45000   0.11310183 -0.007263374   0.00186109    0.1133501    3.2633135            0    1.0489222    1.0489222 
   46000 -0.00038057312 0.0073249097 -0.0060896101 0.0095332307    2.9586433 -0.051927102    0.9509925    0.8990654 
   47000 -0.065026174   0.01367189 -0.015523445  0.068237096    2.3469733            0   0.75438429   0.75438429 
   48000 -0.076035506 -0.075663364 0.0096164289   0.10769781     1.322872            0   0.42520886   0.42520886 
   49000  0.003946811 -0.022437124 -0.030875502  0.038370541    1.9679306            0   0.63254913   0.63254913 
   50000  0.017356558  0.024111673 -0.062246833  0.068973118    1.0808632            0   0.34742032   0.34742032 
   51000 -0.044783501  0.033328177 -0.057676856  0.080267982    1.2236591            0   0.39331899   0.39331899 
   52000 -0.028204898 -0.0041753044 -0.0051167572  0.028967752    3.2080761            0    1.0311673    1.0311673 
   53000 -0.066211243 -0.085249126  0.011321034   0.10853344    2.3361524            0   0.75090613   0.75090613 
   54000  0.018735159 -0.043075746 -0.099572529   0.11009639    1.8024401            0   0.57935576   0.57935576 
   55000   0.01843962  0.028660425 -0.054632462   0.06439057    1.8780248 -0.066443729   0.60365084   0.53720711 
   56000 -0.078955404   0.15727113 -0.025576983   0.17782674    1.5818606            0    0.5084552    0.5084552 
   57000 -0.070564748 -0.039340652  0.010220442  0.081434194    2.4297488            0    0.7809907    0.7809907 
   58000  0.006552155 -0.058987155 -0.030283434  0.066629585    1.3021715            0   0.41855514   0.41855514 
   59000  0.058700883  0.043560177 -0.069213155    0.1006665    0.8498326            0   0.27316048   0.27316048 
   60000 -0.010349206   0.13506724  0.016648126   0.13648233    1.1452171            0   0.36810549   0.36810549 
   61000 -0.078931742 -0.003097742  0.013157659  0.080080833   0.74856172            0   0.24060913   0.24060913 
   62000 -0.0090207553 -0.075888571 -0.030777988  0.082387704    0.3956902            0   0.12718614   0.12718614 
   63000   0.18325587   0.02634524 -0.020737516   0.18629769     2.909354            0    0.9351495    0.9351495 
   64000 -0.005563932  0.055685107  0.035030594  0.066022201    2.0971532            0   0.67408496   0.67408496 
   65000 -0.073000182  0.041270667  0.024024232  0.087232209    1.7028635            0   0.54734898   0.54734898 
   66000   -0.2393352   -0.1113784  -0.14239482   0.29993794     1.900365            0   0.61083159   0.61083159 
   67000 -0.032803963 -0.042227987 -0.051123268  0.073978993    1.7015244            0   0.54691854   0.54691854 
   68000   0.13362619  -0.14855161  -0.13816266    0.2429248   0.65195797            0   0.20955792   0.20955792 
   69000 -0.0029748121  0.002376672   0.02210551 -0.022431042    1.0152769 -0.071399185   0.32633901   0.25493982 
   70000 -0.054626806   0.12189957  -0.12579631   0.18348925    2.8481742            0   0.91548456   0.91548456 
   71000  -0.11595426  0.054190906 -0.087784072   0.15520337     1.327457            0   0.42668262   0.42668262 
   72000  -0.08328823  0.019665594 -0.033460391  0.091887227   0.99122315            0   0.31860744   0.31860744 
   73000 -0.0098004705 -0.044431174  -0.01303529  0.047329666    1.2869186            0   0.41365242   0.41365242 
   74000 0.0028279379  -0.11732164 -0.0049468422   0.11745993    2.0327618            0   0.65338774   0.65338774 
   75000  -0.10433625 -0.017023815 -0.039041248   0.11269464    1.2358497            0   0.39723741   0.39723741 
   76000  -0.10771727   0.15567125  -0.13421387   0.23205584    1.8692405            0   0.60082729   0.60082729 
   77000  0.026271064   0.20008056  -0.15276108    0.2530975    2.4870442            0   0.79940707   0.79940707 
   78000 -0.0083075212  0.051950466 -0.018662168  0.055822418    1.6508518            0   0.53063093   0.53063093 
   79000 -0.023981792   0.10206525   0.11031475   0.15218997    4.5688446            0    1.4685572    1.4685572 
   80000 0.0065312444  -0.11864983  0.016537231   0.11997466    2.9077048            0    0.9346194    0.9346194 
   81000 -0.029518923 -0.019406022 -0.057671919  0.067631433    2.0595638            0   0.66200266   0.66200266 
   82000 -0.049086052   0.18633479 -0.0040505824   0.19273427    2.4473897            0   0.78666099   0.78666099 
   83000  0.036006303 0.0026887222  0.082973637  0.090489267    1.4393372            0    0.4626441    0.4626441 
   84000   0.05154132  -0.07106554 -0.0033494689  0.087852363    2.2623224            0   0.72717506   0.72717506 
   85000  0.037679631  0.012865404  -0.10667518   0.11386337     2.411549            0   0.77514075   0.77514075 
   86000 0.00046121965   0.13528941  0.045184789   0.14263626    3.1146131            0    1.0011256    1.0011256 
   87000  0.036485824 -0.022398034  0.063065329  0.076224163     1.607963            0   0.51684527   0.51684527 
   88000   0.08128845  -0.11800682 -0.083727744   0.16596312    1.8987567            0   0.61031465   0.61031465 
   89000 0.0015215782 0.0022881934 -0.0028981129 0.0039937561    1.8081748            0   0.58119903   0.58119903 
   90000  0.043173938   0.21960467   0.13475895   0.26124734    4.0381635            0    1.2979811    1.2979811 
   91000   0.04057881 -0.052171614  0.058796936  0.088462404    2.7690942            0     0.890066     0.890066 
   92000 0.0040414657 -0.039499706 -0.016566459   0.04302334    2.6103727            0   0.83904835   0.83904835 
   93000  -0.03542513 -0.044187362  -0.15754341   0.16741382    2.7346551            0   0.87899628   0.87899628 
   94000 -0.013426251 -0.0074466117 -0.012857597  0.020025834    1.5588248  0.043880557   0.50105084    0.5449314 
   95000 -0.010679734 -0.018405891 -0.054196107  0.058224149    2.3488696            0   0.75499379   0.75499379 
   96000  0.027251853 -0.056428154 -0.042724759  0.075843293    1.4630181            0   0.47025581   0.47025581 
   97000  0.052100333  -0.12989098 -0.026597056   0.14245531    0.9875768            0    0.3174354    0.3174354 
   98000 -0.074087361 -0.078331592   0.11212914   0.15555616    2.3697037            0   0.76169048   0.76169048 
   99000 -0.072884935  0.038817973 -0.0044597466  0.082697872    1.1028804            0   0.35449728   0.35449728 
  100000 0.0072528995  0.007741857 -0.0095290065  0.014259834    1.5504192            0   0.49834903   0.49834903 
Loop time of 1.79041 on 1 procs for 100000 steps with 14 atoms

Performance: 24128563.690 tau/day, 55853.157 timesteps/s
98.9% CPU use with 1 MPI tasks x no OpenMP threads

MPI task timing breakdown:
Section |  min time  |  avg time  |  max time  |%varavg| %total
---------------------------------------------------------------
Pair    | 0.0083647  | 0.0083647  | 0.0083647  |   0.0 |  0.47
Bond    | 0.0035546  | 0.0035546  | 0.0035546  |   0.0 |  0.20
Neigh   | 0.84153    | 0.84153    | 0.84153    |   0.0 | 47.00
Comm    | 0.070984   | 0.070984   | 0.070984   |   0.0 |  3.96
Output  | 0.012936   | 0.012936   | 0.012936   |   0.0 |  0.72
Modify  | 0.83129    | 0.83129    | 0.83129    |   0.0 | 46.43
Other   |            | 0.02175    |            |       |  1.21

Nlocal:    14 ave 14 max 14 min
Histogram: 1 0 0 0 0 0 0 0 0 0
Nghost:    0 ave 0 max 0 min
Histogram: 1 0 0 0 0 0 0 0 0 0
Neighs:    0 ave 0 max 0 min
Histogram: 1 0 0 0 0 0 0 0 0 0

Total # of neighbors = 0
Ave neighs/atom = 0
Ave special neighs/atom = 6
Neighbor list builds = 5824
Dangerous builds = 71

unfix rigid_1_NVT
unfix rigid_2_NVT
unfix hex_spring_NVT

################################ NVE SIMULATION #################################
# ------------------------------- SYSTEM FIXES ----------------------------------
fix rig_hex_1 hex_1 rigid/nve/small molecule
  create bodies CPU = 8.1e-06 secs
1 rigid bodies with 7 atoms
  1 = max distance from body owner to body atom
fix rig_hex_2 hex_2 rigid/nve/small molecule
  create bodies CPU = 8.9e-06 secs
1 rigid bodies with 7 atoms
  1 = max distance from body owner to body atom
fix hex_spring hex_1 spring couple hex_2 ${K} 0.0 0.0 0.0 ${r0} # spring between RBs
fix hex_spring hex_1 spring couple hex_2 11.9055513410839 0.0 0.0 0.0 ${r0} 
fix hex_spring hex_1 spring couple hex_2 11.9055513410839 0.0 0.0 0.0 2 
# f_hex_spring[1,2,3,4] = force_x, force_y, force_z, magnitude of the force

# ----------------------------- PROPERTY COMPUTES -------------------------------
# Calculate rigid body properties - local data, so must be outputted using dump ... "local"
compute com_1   all rigid/local rig_hex_1 xu yu zu                  # RB1 unscaled center of mass x, y, z
compute com_2   all rigid/local rig_hex_2 xu yu zu                  # RB2 unscaled center of mass x, y, z
compute vel_1   all rigid/local rig_hex_1 vx vy vz                  # RB1 center of mass velocities vx, vy, vz
compute vel_2   all rigid/local rig_hex_2 vx vy vz                  # RB2 center of mass velocities vx, vy, vz
compute q_1     all rigid/local rig_hex_1 quati quatj quatk quatw   # RB1 quaternion components
compute q_2     all rigid/local rig_hex_2 quati quatj quatk quatw   # RB2 quaternion components
compute av_1    all rigid/local rig_hex_1 omegax omegay omegaz      # RB1 angular velocities
compute av_2    all rigid/local rig_hex_2 omegax omegay omegaz      # RB2 angular velocities
compute am_1    all rigid/local rig_hex_1 angmomx angmomy angmomz   # RB1 angular momenta
compute am_2    all rigid/local rig_hex_2 angmomx angmomy angmomz   # RB2 angular momenta
compute i_1    all rigid/local rig_hex_1 inertiax inertiay inertiaz # RB1 inertia
compute i_2    all rigid/local rig_hex_2 inertiax inertiay inertiaz # RB2 inertia

# ----------------------------- CONFIGURE OUTPUTS -------------------------------
thermo_style custom step f_hex_spring[*] temp pe ke etotal
dump    1 all custom ${log_freq} ${traj}       id type x y z
dump    1 all custom 1000 ${traj}       id type x y z
dump    1 all custom 1000 NVE-temp-1.5_K-11.9055513410839_r-2_s-5-traj.dump       id type x y z
dump    2 all local  ${log_freq} ${rb_info}  c_com_1[*] c_com_2[*]     c_vel_1[*] c_vel_2[*] c_q_1[*] c_q_2[*] c_av_1[*] c_av_2[*]        c_am_1[*] c_am_2[*] c_i_1[*] c_i_2[*]
dump    2 all local  1000 ${rb_info}  c_com_1[*] c_com_2[*]     c_vel_1[*] c_vel_2[*] c_q_1[*] c_q_2[*] c_av_1[*] c_av_2[*]        c_am_1[*] c_am_2[*] c_i_1[*] c_i_2[*]
dump    2 all local  1000 NVE-temp-1.5_K-11.9055513410839_r-2_s-5-info.dat  c_com_1[*] c_com_2[*]     c_vel_1[*] c_vel_2[*] c_q_1[*] c_q_2[*] c_av_1[*] c_av_2[*]        c_am_1[*] c_am_2[*] c_i_1[*] c_i_2[*]

log ${sim_log} # create new log file with simulation information only
log NVE-temp-1.5_K-11.9055513410839_r-2_s-5-sim.log 
