ITEM: TIMESTEP
100000
ITEM: NUMBER OF ATOMS
14
ITEM: BOX BOUNDS pp pp pp
-2.5000000000000000e+01 2.9000000000000000e+01
-2.5000000000000000e+01 2.5000000000000000e+01
-2.5000000000000000e+01 2.5000000000000000e+01
ITEM: ATOMS id type x y z 
9 1 2.83165 -4.0036 -16.7389 
8 1 3.79207 -4.28166 -16.7226 
13 1 4.51341 -3.5921 -16.7873 
10 1 2.59256 -3.03599 -16.8199 
14 1 3.55298 -3.31405 -16.8036 
11 1 3.31389 -2.34644 -16.8846 
12 1 4.27432 -2.62449 -16.8683 
4 1 1.59944 -5.058 -15.3651 
5 1 2.4911 -5.50609 -15.3005 
7 1 2.43419 -4.50826 -15.3337 
6 1 3.32585 -4.95635 -15.2692 
3 1 1.54254 -4.06017 -15.3982 
1 1 3.26894 -3.95852 -15.3023 
2 1 2.37729 -3.51043 -15.3669 
ITEM: TIMESTEP
101000
ITEM: NUMBER OF ATOMS
14
ITEM: BOX BOUNDS pp pp pp
-2.5000000000000000e+01 2.9000000000000000e+01
-2.5000000000000000e+01 2.5000000000000000e+01
-2.5000000000000000e+01 2.5000000000000000e+01
ITEM: ATOMS id type x y z 
9 1 2.8394 -4.01357 -16.7297 
8 1 3.80089 -4.28832 -16.7221 
13 1 4.51923 -3.59625 -16.7931 
10 1 2.59626 -3.04676 -16.8082 
14 1 3.55775 -3.32151 -16.8006 
11 1 3.3146 -2.3547 -16.8791 
12 1 4.27609 -2.62944 -16.8715 
4 1 1.59093 -5.05399 -15.3627 
5 1 2.48057 -5.50672 -15.3028 
7 1 2.42852 -4.50852 -15.3326 
6 1 3.31816 -4.96125 -15.2727 
3 1 1.53889 -4.0558 -15.3925 
1 1 3.26611 -3.96305 -15.3025 
2 1 2.37648 -3.51033 -15.3624 
ITEM: TIMESTEP
102000
ITEM: NUMBER OF ATOMS
14
ITEM: BOX BOUNDS pp pp pp
-2.5000000000000000e+01 2.9000000000000000e+01
-2.5000000000000000e+01 2.5000000000000000e+01
-2.5000000000000000e+01 2.5000000000000000e+01
ITEM: ATOMS id type x y z 
9 1 2.84721 -4.02355 -16.7205 
8 1 3.80966 -4.29498 -16.7217 
13 1 4.52495 -3.60041 -16.7988 
10 1 2.60003 -3.05756 -16.7965 
14 1 3.56249 -3.32899 -16.7976 
11 1 3.31532 -2.363 -16.8736 
12 1 4.27777 -2.63442 -16.8747 
4 1 1.58246 -5.04997 -15.3603 
5 1 2.47004 -5.50731 -15.305 
7 1 2.42287 -4.50877 -15.3315 
6 1 3.31044 -4.96611 -15.2763 
3 1 1.53529 -4.05143 -15.3867 
1 1 3.26327 -3.96757 -15.3028 
2 1 2.3757 -3.51023 -15.358 
ITEM: TIMESTEP
103000
ITEM: NUMBER OF ATOMS
14
ITEM: BOX BOUNDS pp pp pp
-2.5000000000000000e+01 2.9000000000000000e+01
-2.5000000000000000e+01 2.5000000000000000e+01
-2.5000000000000000e+01 2.5000000000000000e+01
ITEM: ATOMS id type x y z 
9 1 2.85506 -4.03354 -16.7113 
8 1 3.8184 -4.30164 -16.7212 
13 1 4.53056 -3.60458 -16.8045 
10 1 2.60388 -3.06838 -16.7847 
14 1 3.56722 -3.33648 -16.7946 
11 1 3.31604 -2.37133 -16.868 
12 1 4.27938 -2.63943 -16.8779 
4 1 1.57404 -5.04591 -15.3579 
5 1 2.45952 -5.50783 -15.3073 
7 1 2.41723 -4.509 -15.3304 
6 1 3.30271 -4.97092 -15.2799 
3 1 1.53176 -4.04707 -15.381 
1 1 3.26042 -3.97208 -15.303 
2 1 2.37495 -3.51016 -15.3536 
ITEM: TIMESTEP
104000
ITEM: NUMBER OF ATOMS
14
ITEM: BOX BOUNDS pp pp pp
-2.5000000000000000e+01 2.9000000000000000e+01
-2.5000000000000000e+01 2.5000000000000000e+01
-2.5000000000000000e+01 2.5000000000000000e+01
ITEM: ATOMS id type x y z 
9 1 2.86295 -4.04353 -16.7021 
8 1 3.82709 -4.3083 -16.7207 
13 1 4.53606 -3.60876 -16.8102 
10 1 2.60779 -3.07923 -16.773 
14 1 3.57193 -3.344 -16.7916 
11 1 3.31677 -2.3797 -16.8625 
12 1 4.2809 -2.64446 -16.8811 
4 1 1.56566 -5.04183 -15.3555 
5 1 2.449 -5.50831 -15.3096 
7 1 2.41161 -4.50921 -15.3294 
6 1 3.29495 -4.97569 -15.2835 
3 1 1.52828 -4.04272 -15.3753 
1 1 3.25756 -3.97659 -15.3033 
2 1 2.37423 -3.5101 -15.3492 
ITEM: TIMESTEP
105000
ITEM: NUMBER OF ATOMS
14
ITEM: BOX BOUNDS pp pp pp
-2.5000000000000000e+01 2.9000000000000000e+01
-2.5000000000000000e+01 2.5000000000000000e+01
-2.5000000000000000e+01 2.5000000000000000e+01
ITEM: ATOMS id type x y z 
9 1 2.8709 -4.05353 -16.6929 
8 1 3.83573 -4.31496 -16.7202 
13 1 4.54145 -3.61295 -16.8159 
10 1 2.61178 -3.0901 -16.7612 
14 1 3.57662 -3.35153 -16.7885 
11 1 3.3175 -2.3881 -16.8569 
12 1 4.28234 -2.64953 -16.8842 
4 1 1.55733 -5.03772 -15.3532 
5 1 2.43849 -5.50874 -15.3119 
7 1 2.40601 -4.5094 -15.3284 
6 1 3.28717 -4.98042 -15.2871 
3 1 1.52485 -4.03838 -15.3697 
1 1 3.2547 -3.98108 -15.3036 
2 1 2.37354 -3.51006 -15.3449 
ITEM: TIMESTEP
106000
ITEM: NUMBER OF ATOMS
14
ITEM: BOX BOUNDS pp pp pp
-2.5000000000000000e+01 2.9000000000000000e+01
-2.5000000000000000e+01 2.5000000000000000e+01
-2.5000000000000000e+01 2.5000000000000000e+01
ITEM: ATOMS id type x y z 
9 1 2.87889 -4.06354 -16.6836 
8 1 3.84434 -4.32162 -16.7197 
13 1 4.54674 -3.61716 -16.8215 
10 1 2.61584 -3.101 -16.7494 
14 1 3.58129 -3.35908 -16.7855 
11 1 3.31824 -2.39654 -16.8512 
12 1 4.28369 -2.65462 -16.8873 
4 1 1.54904 -5.03358 -15.3509 
5 1 2.42798 -5.50911 -15.3143 
7 1 2.40043 -4.50957 -15.3274 
6 1 3.27937 -4.9851 -15.2908 
3 1 1.52149 -4.03405 -15.364 
1 1 3.25182 -3.98556 -15.3039 
2 1 2.37288 -3.51004 -15.3405 
ITEM: TIMESTEP
107000
ITEM: NUMBER OF ATOMS
14
ITEM: BOX BOUNDS pp pp pp
-2.5000000000000000e+01 2.9000000000000000e+01
-2.5000000000000000e+01 2.5000000000000000e+01
-2.5000000000000000e+01 2.5000000000000000e+01
ITEM: ATOMS id type x y z 
9 1 2.88693 -4.07355 -16.6743 
8 1 3.8529 -4.32828 -16.7191 
13 1 4.55192 -3.62138 -16.8272 
10 1 2.61997 -3.11192 -16.7376 
14 1 3.58594 -3.36665 -16.7824 
11 1 3.31899 -2.40502 -16.8456 
12 1 4.28496 -2.65975 -16.8904 
4 1 1.5408 -5.02942 -15.3486 
5 1 2.41748 -5.50942 -15.3166 
7 1 2.39487 -4.50973 -15.3264 
6 1 3.27155 -4.98973 -15.2945 
3 1 1.51818 -4.02972 -15.3584 
1 1 3.24893 -3.99004 -15.3043 
2 1 2.37225 -3.51003 -15.3362 
ITEM: TIMESTEP
108000
ITEM: NUMBER OF ATOMS
14
ITEM: BOX BOUNDS pp pp pp
-2.5000000000000000e+01 2.9000000000000000e+01
-2.5000000000000000e+01 2.5000000000000000e+01
-2.5000000000000000e+01 2.5000000000000000e+01
ITEM: ATOMS id type x y z 
9 1 2.89501 -4.08356 -16.665 
8 1 3.86142 -4.33494 -16.7186 
13 1 4.55699 -3.62562 -16.8328 
10 1 2.62417 -3.12285 -16.7257 
14 1 3.59058 -3.37423 -16.7792 
11 1 3.31974 -2.41353 -16.8399 
12 1 4.28615 -2.66491 -16.8934 
4 1 1.5326 -5.02523 -15.3463 
5 1 2.40699 -5.50969 -15.319 
7 1 2.38932 -4.50987 -15.3255 
6 1 3.26371 -4.99433 -15.2982 
3 1 1.51493 -4.0254 -15.3528 
1 1 3.24604 -3.9945 -15.3047 
2 1 2.37165 -3.51004 -15.3319 
ITEM: TIMESTEP
109000
ITEM: NUMBER OF ATOMS
14
ITEM: BOX BOUNDS pp pp pp
-2.5000000000000000e+01 2.9000000000000000e+01
-2.5000000000000000e+01 2.5000000000000000e+01
-2.5000000000000000e+01 2.5000000000000000e+01
ITEM: ATOMS id type x y z 
9 1 2.90315 -4.09358 -16.6557 
8 1 3.8699 -4.34161 -16.718 
13 1 4.56195 -3.62986 -16.8383 
10 1 2.62844 -3.13381 -16.7139 
14 1 3.5952 -3.38184 -16.7761 
11 1 3.32049 -2.42207 -16.8342 
12 1 4.28725 -2.67009 -16.8965 
4 1 1.52445 -5.02101 -15.3441 
5 1 2.3965 -5.5099 -15.3214 
7 1 2.38379 -4.50999 -15.3246 
6 1 3.25585 -4.99887 -15.3019 
3 1 1.51174 -4.0211 -15.3472 
1 1 3.24314 -3.99896 -15.305 
2 1 2.37109 -3.51007 -15.3277 
ITEM: TIMESTEP
110000
ITEM: NUMBER OF ATOMS
14
ITEM: BOX BOUNDS pp pp pp
-2.5000000000000000e+01 2.9000000000000000e+01
-2.5000000000000000e+01 2.5000000000000000e+01
-2.5000000000000000e+01 2.5000000000000000e+01
ITEM: ATOMS id type x y z 
8 1 3.87834 -4.34827 -16.7173 
9 1 2.91133 -4.10361 -16.6464 
13 1 4.56681 -3.63413 -16.8438 
10 1 2.63279 -3.14479 -16.702 
14 1 3.5998 -3.38946 -16.7729 
11 1 3.32125 -2.43065 -16.8285 
12 1 4.28826 -2.67531 -16.8994 
4 1 1.51634 -5.01677 -15.3418 
5 1 2.38602 -5.51006 -15.3239 
7 1 2.37829 -4.51009 -15.3237 
6 1 3.24796 -5.00338 -15.3057 
3 1 1.50861 -4.0168 -15.3416 
1 1 3.24023 -4.00341 -15.3055 
2 1 2.37055 -3.51012 -15.3234 
ITEM: TIMESTEP
111000
ITEM: NUMBER OF ATOMS
14
ITEM: BOX BOUNDS pp pp pp
-2.5000000000000000e+01 2.9000000000000000e+01
-2.5000000000000000e+01 2.5000000000000000e+01
-2.5000000000000000e+01 2.5000000000000000e+01
ITEM: ATOMS id type x y z 
8 1 3.88673 -4.35494 -16.7167 
9 1 2.91956 -4.11363 -16.6371 
13 1 4.57155 -3.63841 -16.8493 
10 1 2.6372 -3.15579 -16.6901 
14 1 3.60438 -3.3971 -16.7697 
11 1 3.32202 -2.43926 -16.8228 
12 1 4.2892 -2.68057 -16.9024 
4 1 1.50828 -5.0125 -15.3396 
5 1 2.37555 -5.51016 -15.3263 
7 1 2.3728 -4.51017 -15.3228 
6 1 3.24006 -5.00784 -15.3095 
3 1 1.50553 -4.01251 -15.3361 
1 1 3.23731 -4.00785 -15.3059 
2 1 2.37004 -3.51018 -15.3192 
ITEM: TIMESTEP
112000
ITEM: NUMBER OF ATOMS
14
ITEM: BOX BOUNDS pp pp pp
-2.5000000000000000e+01 2.9000000000000000e+01
-2.5000000000000000e+01 2.5000000000000000e+01
-2.5000000000000000e+01 2.5000000000000000e+01
ITEM: ATOMS id type x y z 
8 1 3.89509 -4.36161 -16.716 
9 1 2.92783 -4.12366 -16.6277 
13 1 4.57619 -3.6427 -16.8548 
10 1 2.64168 -3.16681 -16.6782 
14 1 3.60894 -3.40476 -16.7665 
11 1 3.32279 -2.4479 -16.817 
12 1 4.29004 -2.68585 -16.9053 
4 1 1.50027 -5.0082 -15.3375 
5 1 2.36509 -5.51021 -15.3288 
7 1 2.36733 -4.51024 -15.3219 
6 1 3.23215 -5.01225 -15.3133 
3 1 1.50251 -4.00823 -15.3306 
1 1 3.23438 -4.01228 -15.3064 
2 1 2.36957 -3.51027 -15.315 
ITEM: TIMESTEP
113000
ITEM: NUMBER OF ATOMS
14
ITEM: BOX BOUNDS pp pp pp
-2.5000000000000000e+01 2.9000000000000000e+01
-2.5000000000000000e+01 2.5000000000000000e+01
-2.5000000000000000e+01 2.5000000000000000e+01
ITEM: ATOMS id type x y z 
8 1 3.9034 -4.36828 -16.7153 
9 1 2.93615 -4.13369 -16.6183 
13 1 4.58072 -3.64701 -16.8603 
10 1 2.64623 -3.17784 -16.6663 
14 1 3.61348 -3.41243 -16.7633 
11 1 3.32356 -2.45658 -16.8113 
12 1 4.2908 -2.69117 -16.9082 
4 1 1.4923 -5.00388 -15.3353 
5 1 2.35463 -5.51021 -15.3313 
7 1 2.36188 -4.51029 -15.3211 
6 1 3.22421 -5.01662 -15.3171 
3 1 1.49954 -4.00396 -15.3251 
1 1 3.23145 -4.0167 -15.3069 
2 1 2.36912 -3.51037 -15.3108 
ITEM: TIMESTEP
114000
ITEM: NUMBER OF ATOMS
14
ITEM: BOX BOUNDS pp pp pp
-2.5000000000000000e+01 2.9000000000000000e+01
-2.5000000000000000e+01 2.5000000000000000e+01
-2.5000000000000000e+01 2.5000000000000000e+01
ITEM: ATOMS id type x y z 
8 1 3.91167 -4.37495 -16.7146 
9 1 2.94452 -4.14372 -16.609 
13 1 4.58515 -3.65134 -16.8657 
10 1 2.65085 -3.1889 -16.6544 
14 1 3.618 -3.42012 -16.76 
11 1 3.32433 -2.46529 -16.8055 
12 1 4.29148 -2.69652 -16.9111 
4 1 1.48438 -4.99954 -15.3332 
5 1 2.34418 -5.51016 -15.3339 
7 1 2.35645 -4.51032 -15.3203 
6 1 3.21625 -5.02094 -15.321 
3 1 1.49664 -3.99971 -15.3196 
1 1 3.22851 -4.02111 -15.3074 
2 1 2.36871 -3.51049 -15.3067 
ITEM: TIMESTEP
115000
ITEM: NUMBER OF ATOMS
14
ITEM: BOX BOUNDS pp pp pp
-2.5000000000000000e+01 2.9000000000000000e+01
-2.5000000000000000e+01 2.5000000000000000e+01
-2.5000000000000000e+01 2.5000000000000000e+01
ITEM: ATOMS id type x y z 
8 1 3.91989 -4.38162 -16.7138 
9 1 2.95293 -4.15376 -16.5996 
13 1 4.58946 -3.65569 -16.871 
10 1 2.65554 -3.19997 -16.6425 
14 1 3.6225 -3.42783 -16.7567 
11 1 3.3251 -2.47404 -16.7996 
12 1 4.29207 -2.7019 -16.9139 
4 1 1.4765 -4.99517 -15.331 
5 1 2.33375 -5.51005 -15.3364 
7 1 2.35103 -4.51034 -15.3195 
6 1 3.20828 -5.02522 -15.3248 
3 1 1.49379 -3.99546 -15.3141 
1 1 3.22557 -4.02551 -15.3079 
2 1 2.36832 -3.51063 -15.3026 
ITEM: TIMESTEP
116000
ITEM: NUMBER OF ATOMS
14
ITEM: BOX BOUNDS pp pp pp
-2.5000000000000000e+01 2.9000000000000000e+01
-2.5000000000000000e+01 2.5000000000000000e+01
-2.5000000000000000e+01 2.5000000000000000e+01
ITEM: ATOMS id type x y z 
8 1 3.92808 -4.38829 -16.7131 
9 1 2.96139 -4.16379 -16.5902 
13 1 4.59367 -3.66005 -16.8764 
10 1 2.66029 -3.21105 -16.6305 
14 1 3.62698 -3.43555 -16.7534 
11 1 3.32588 -2.48282 -16.7938 
12 1 4.29257 -2.70732 -16.9167 
4 1 1.46867 -4.99077 -15.329 
5 1 2.32332 -5.50989 -15.339 
7 1 2.34564 -4.51034 -15.3187 
6 1 3.20029 -5.02945 -15.3287 
3 1 1.491 -3.99123 -15.3087 
1 1 3.22261 -4.02991 -15.3085 
2 1 2.36797 -3.51079 -15.2984 
ITEM: TIMESTEP
117000
ITEM: NUMBER OF ATOMS
14
ITEM: BOX BOUNDS pp pp pp
-2.5000000000000000e+01 2.9000000000000000e+01
-2.5000000000000000e+01 2.5000000000000000e+01
-2.5000000000000000e+01 2.5000000000000000e+01
ITEM: ATOMS id type x y z 
8 1 3.93623 -4.39496 -16.7123 
9 1 2.9699 -4.17382 -16.5807 
13 1 4.59777 -3.66444 -16.8817 
10 1 2.66511 -3.22215 -16.6186 
14 1 3.63144 -3.44329 -16.7501 
11 1 3.32666 -2.49162 -16.7879 
12 1 4.29299 -2.71277 -16.9195 
4 1 1.46089 -4.98635 -15.3269 
5 1 2.3129 -5.50967 -15.3416 
7 1 2.34027 -4.51032 -15.318 
6 1 3.19228 -5.03364 -15.3327 
3 1 1.48826 -3.98701 -15.3033 
1 1 3.21966 -4.03429 -15.309 
2 1 2.36764 -3.51098 -15.2944 
ITEM: TIMESTEP
118000
ITEM: NUMBER OF ATOMS
14
ITEM: BOX BOUNDS pp pp pp
-2.5000000000000000e+01 2.9000000000000000e+01
-2.5000000000000000e+01 2.5000000000000000e+01
-2.5000000000000000e+01 2.5000000000000000e+01
ITEM: ATOMS id type x y z 
8 1 3.94433 -4.40164 -16.7115 
9 1 2.97845 -4.18385 -16.5713 
13 1 4.60176 -3.66884 -16.8869 
10 1 2.67 -3.23327 -16.6066 
14 1 3.63588 -3.45105 -16.7468 
11 1 3.32744 -2.50047 -16.7821 
12 1 4.29332 -2.71825 -16.9222 
5 1 2.30249 -5.5094 -15.3442 
6 1 3.18426 -5.03778 -15.3366 
4 1 1.45315 -4.98191 -15.3248 
7 1 2.33492 -4.51029 -15.3172 
3 1 1.48558 -3.9828 -15.2979 
1 1 3.21669 -4.03867 -15.3096 
2 1 2.36735 -3.51118 -15.2903 
ITEM: TIMESTEP
119000
ITEM: NUMBER OF ATOMS
14
ITEM: BOX BOUNDS pp pp pp
-2.5000000000000000e+01 2.9000000000000000e+01
-2.5000000000000000e+01 2.5000000000000000e+01
-2.5000000000000000e+01 2.5000000000000000e+01
ITEM: ATOMS id type x y z 
8 1 3.95239 -4.40832 -16.7106 
9 1 2.98705 -4.19388 -16.5619 
13 1 4.60565 -3.67326 -16.8921 
10 1 2.67496 -3.2444 -16.5946 
14 1 3.6403 -3.45883 -16.7434 
11 1 3.32821 -2.50934 -16.7762 
12 1 4.29356 -2.72377 -16.9249 
5 1 2.29209 -5.50907 -15.3468 
6 1 3.17622 -5.04187 -15.3406 
4 1 1.44546 -4.97744 -15.3228 
7 1 2.32959 -4.51024 -15.3165 
3 1 1.48296 -3.9786 -15.2925 
1 1 3.21372 -4.04304 -15.3103 
2 1 2.36709 -3.5114 -15.2863 
ITEM: TIMESTEP
120000
ITEM: NUMBER OF ATOMS
14
ITEM: BOX BOUNDS pp pp pp
-2.5000000000000000e+01 2.9000000000000000e+01
-2.5000000000000000e+01 2.5000000000000000e+01
-2.5000000000000000e+01 2.5000000000000000e+01
ITEM: ATOMS id type x y z 
8 1 3.96041 -4.41499 -16.7098 
9 1 2.99569 -4.20391 -16.5524 
13 1 4.60943 -3.6777 -16.8973 
10 1 2.67998 -3.25554 -16.5827 
14 1 3.6447 -3.46662 -16.74 
11 1 3.32899 -2.51825 -16.7702 
12 1 4.29372 -2.72933 -16.9276 
5 1 2.28171 -5.5087 -15.3495 
6 1 3.16817 -5.04592 -15.3445 
4 1 1.43782 -4.97294 -15.3208 
7 1 2.32428 -4.51017 -15.3159 
3 1 1.48039 -3.97441 -15.2872 
1 1 3.21074 -4.04739 -15.3109 
2 1 2.36686 -3.51164 -15.2822 
ITEM: TIMESTEP
121000
ITEM: NUMBER OF ATOMS
14
ITEM: BOX BOUNDS pp pp pp
-2.5000000000000000e+01 2.9000000000000000e+01
-2.5000000000000000e+01 2.5000000000000000e+01
-2.5000000000000000e+01 2.5000000000000000e+01
ITEM: ATOMS id type x y z 
8 1 3.96839 -4.42167 -16.7089 
9 1 3.00438 -4.21394 -16.543 
13 1 4.6131 -3.68216 -16.9025 
10 1 2.68507 -3.26669 -16.5707 
14 1 3.64908 -3.47443 -16.7366 
11 1 3.32977 -2.52718 -16.7643 
12 1 4.29378 -2.73492 -16.9302 
5 1 2.27133 -5.50826 -15.3522 
6 1 3.1601 -5.04992 -15.3485 
4 1 1.43022 -4.96842 -15.3188 
7 1 2.31899 -4.51008 -15.3152 
3 1 1.47789 -3.97024 -15.2819 
1 1 3.20776 -4.05174 -15.3116 
2 1 2.36666 -3.5119 -15.2783 
ITEM: TIMESTEP
122000
ITEM: NUMBER OF ATOMS
14
ITEM: BOX BOUNDS pp pp pp
-2.5000000000000000e+01 2.9000000000000000e+01
-2.5000000000000000e+01 2.5000000000000000e+01
-2.5000000000000000e+01 2.5000000000000000e+01
ITEM: ATOMS id type x y z 
8 1 3.97633 -4.42835 -16.708 
9 1 3.01312 -4.22396 -16.5335 
13 1 4.61666 -3.68665 -16.9076 
10 1 2.69022 -3.27786 -16.5587 
14 1 3.65344 -3.48225 -16.7331 
11 1 3.33055 -2.53615 -16.7583 
12 1 4.29377 -2.74055 -16.9328 
5 1 2.26097 -5.50778 -15.3549 
6 1 3.15202 -5.05388 -15.3526 
4 1 1.42267 -4.96388 -15.3169 
7 1 2.31372 -4.50998 -15.3146 
3 1 1.47543 -3.96609 -15.2766 
1 1 3.20478 -4.05609 -15.3123 
2 1 2.36648 -3.51219 -15.2743 
ITEM: TIMESTEP
123000
ITEM: NUMBER OF ATOMS
14
ITEM: BOX BOUNDS pp pp pp
-2.5000000000000000e+01 2.9000000000000000e+01
-2.5000000000000000e+01 2.5000000000000000e+01
-2.5000000000000000e+01 2.5000000000000000e+01
ITEM: ATOMS id type x y z 
8 1 3.98423 -4.43503 -16.707 
9 1 3.02189 -4.23398 -16.524 
13 1 4.62012 -3.69115 -16.9127 
10 1 2.69544 -3.28904 -16.5467 
14 1 3.65778 -3.49009 -16.7297 
11 1 3.33132 -2.54515 -16.7524 
12 1 4.29366 -2.74621 -16.9353 
5 1 2.25061 -5.50724 -15.3576 
6 1 3.14392 -5.05779 -15.3566 
4 1 1.41517 -4.95932 -15.3149 
7 1 2.30848 -4.50987 -15.314 
3 1 1.47304 -3.96194 -15.2713 
1 1 3.20178 -4.06042 -15.313 
2 1 2.36634 -3.5125 -15.2704 
ITEM: TIMESTEP
124000
ITEM: NUMBER OF ATOMS
14
ITEM: BOX BOUNDS pp pp pp
-2.5000000000000000e+01 2.9000000000000000e+01
-2.5000000000000000e+01 2.5000000000000000e+01
-2.5000000000000000e+01 2.5000000000000000e+01
ITEM: ATOMS id type x y z 
8 1 3.99209 -4.44172 -16.706 
9 1 3.03072 -4.24399 -16.5146 
13 1 4.62347 -3.69568 -16.9177 
10 1 2.70072 -3.30023 -16.5347 
14 1 3.66209 -3.49795 -16.7262 
11 1 3.33209 -2.55419 -16.7464 
12 1 4.29347 -2.75191 -16.9378 
5 1 2.24027 -5.50664 -15.3603 
6 1 3.13581 -5.06165 -15.3607 
4 1 1.40772 -4.95472 -15.313 
7 1 2.30325 -4.50973 -15.3134 
3 1 1.4707 -3.95781 -15.2661 
1 1 3.19879 -4.06474 -15.3137 
2 1 2.36623 -3.51282 -15.2664 
ITEM: TIMESTEP
125000
ITEM: NUMBER OF ATOMS
14
ITEM: BOX BOUNDS pp pp pp
-2.5000000000000000e+01 2.9000000000000000e+01
-2.5000000000000000e+01 2.5000000000000000e+01
-2.5000000000000000e+01 2.5000000000000000e+01
ITEM: ATOMS id type x y z 
8 1 3.99991 -4.4484 -16.7051 
9 1 3.03959 -4.254 -16.5051 
13 1 4.62671 -3.70023 -16.9227 
10 1 2.70607 -3.31142 -16.5227 
14 1 3.66639 -3.50582 -16.7227 
11 1 3.33286 -2.56325 -16.7403 
12 1 4.29318 -2.75765 -16.9403 
5 1 2.22995 -5.506 -15.3631 
6 1 3.12768 -5.06547 -15.3648 
4 1 1.40031 -4.95011 -15.3111 
7 1 2.29805 -4.50958 -15.3128 
3 1 1.46842 -3.9537 -15.2609 
1 1 3.19579 -4.06906 -15.3145 
2 1 2.36615 -3.51317 -15.2625 
ITEM: TIMESTEP
126000
ITEM: NUMBER OF ATOMS
14
ITEM: BOX BOUNDS pp pp pp
-2.5000000000000000e+01 2.9000000000000000e+01
-2.5000000000000000e+01 2.5000000000000000e+01
-2.5000000000000000e+01 2.5000000000000000e+01
ITEM: ATOMS id type x y z 
8 1 4.00769 -4.45509 -16.704 
9 1 3.0485 -4.264 -16.4956 
13 1 4.62984 -3.7048 -16.9276 
10 1 2.71147 -3.32263 -16.5107 
14 1 3.67066 -3.51371 -16.7192 
11 1 3.33363 -2.57234 -16.7343 
12 1 4.29282 -2.76342 -16.9427 
5 1 2.21963 -5.50529 -15.3659 
6 1 3.11955 -5.06924 -15.3689 
4 1 1.39295 -4.94547 -15.3093 
7 1 2.29287 -4.50942 -15.3123 
3 1 1.46619 -3.9496 -15.2557 
1 1 3.19278 -4.07336 -15.3153 
2 1 2.3661 -3.51355 -15.2587 
ITEM: TIMESTEP
127000
ITEM: NUMBER OF ATOMS
14
ITEM: BOX BOUNDS pp pp pp
-2.5000000000000000e+01 2.9000000000000000e+01
-2.5000000000000000e+01 2.5000000000000000e+01
-2.5000000000000000e+01 2.5000000000000000e+01
ITEM: ATOMS id type x y z 
8 1 4.01542 -4.46177 -16.703 
9 1 3.05746 -4.274 -16.4861 
13 1 4.63287 -3.70939 -16.9325 
10 1 2.71694 -3.33385 -16.4987 
14 1 3.67491 -3.52162 -16.7156 
11 1 3.33439 -2.58146 -16.7282 
12 1 4.29236 -2.76924 -16.9451 
5 1 2.20933 -5.50454 -15.3687 
6 1 3.1114 -5.07296 -15.373 
4 1 1.38564 -4.94081 -15.3074 
7 1 2.28771 -4.50924 -15.3118 
3 1 1.46402 -3.94552 -15.2505 
1 1 3.18977 -4.07766 -15.3161 
2 1 2.36608 -3.51394 -15.2548 
ITEM: TIMESTEP
128000
ITEM: NUMBER OF ATOMS
14
ITEM: BOX BOUNDS pp pp pp
-2.5000000000000000e+01 2.9000000000000000e+01
-2.5000000000000000e+01 2.5000000000000000e+01
-2.5000000000000000e+01 2.5000000000000000e+01
ITEM: ATOMS id type x y z 
8 1 4.02312 -4.46846 -16.7019 
9 1 3.06646 -4.28399 -16.4766 
13 1 4.6358 -3.71401 -16.9374 
10 1 2.72248 -3.34507 -16.4867 
14 1 3.67914 -3.52954 -16.712 
11 1 3.33515 -2.59062 -16.7221 
12 1 4.29181 -2.77509 -16.9475 
5 1 2.19905 -5.50373 -15.3715 
6 1 3.10324 -5.07664 -15.3771 
4 1 1.37838 -4.93613 -15.3056 
7 1 2.28257 -4.50904 -15.3113 
3 1 1.4619 -3.94145 -15.2454 
1 1 3.18676 -4.08195 -15.3169 
2 1 2.3661 -3.51436 -15.251 
ITEM: TIMESTEP
129000
ITEM: NUMBER OF ATOMS
14
ITEM: BOX BOUNDS pp pp pp
-2.5000000000000000e+01 2.9000000000000000e+01
-2.5000000000000000e+01 2.5000000000000000e+01
-2.5000000000000000e+01 2.5000000000000000e+01
ITEM: ATOMS id type x y z 
8 1 4.03077 -4.47515 -16.7008 
9 1 3.07551 -4.29397 -16.4671 
13 1 4.63861 -3.71865 -16.9422 
10 1 2.72807 -3.3563 -16.4747 
14 1 3.68334 -3.53748 -16.7084 
11 1 3.33591 -2.5998 -16.716 
12 1 4.29118 -2.78098 -16.9498 
5 1 2.18877 -5.50286 -15.3743 
6 1 3.09507 -5.08026 -15.3813 
4 1 1.37116 -4.93142 -15.3038 
7 1 2.27746 -4.50883 -15.3108 
3 1 1.45985 -3.93739 -15.2402 
1 1 3.18375 -4.08623 -15.3178 
2 1 2.36614 -3.5148 -15.2472 
ITEM: TIMESTEP
130000
ITEM: NUMBER OF ATOMS
14
ITEM: BOX BOUNDS pp pp pp
-2.5000000000000000e+01 2.9000000000000000e+01
-2.5000000000000000e+01 2.5000000000000000e+01
-2.5000000000000000e+01 2.5000000000000000e+01
ITEM: ATOMS id type x y z 
8 1 4.03839 -4.48184 -16.6997 
9 1 3.08459 -4.30395 -16.4576 
13 1 4.64132 -3.72332 -16.9469 
10 1 2.73373 -3.36753 -16.4627 
14 1 3.68753 -3.54543 -16.7048 
11 1 3.33666 -2.60902 -16.7099 
12 1 4.29046 -2.78691 -16.9521 
5 1 2.17852 -5.50194 -15.3772 
6 1 3.08688 -5.08385 -15.3855 
4 1 1.364 -4.9267 -15.302 
7 1 2.27236 -4.5086 -15.3103 
3 1 1.45784 -3.93336 -15.2352 
1 1 3.18073 -4.09051 -15.3186 
2 1 2.36621 -3.51526 -15.2435 
ITEM: TIMESTEP
131000
ITEM: NUMBER OF ATOMS
14
ITEM: BOX BOUNDS pp pp pp
-2.5000000000000000e+01 2.9000000000000000e+01
-2.5000000000000000e+01 2.5000000000000000e+01
-2.5000000000000000e+01 2.5000000000000000e+01
ITEM: ATOMS id type x y z 
8 1 4.04597 -4.48853 -16.6986 
9 1 3.09372 -4.31391 -16.4481 
13 1 4.64393 -3.72801 -16.9517 
10 1 2.73944 -3.37878 -16.4507 
14 1 3.69169 -3.5534 -16.7012 
11 1 3.33741 -2.61826 -16.7038 
12 1 4.28965 -2.79288 -16.9543 
5 1 2.16827 -5.50097 -15.3801 
6 1 3.07869 -5.08738 -15.3897 
4 1 1.35688 -4.92194 -15.3003 
7 1 2.26729 -4.50836 -15.3099 
3 1 1.4559 -3.92934 -15.2301 
1 1 3.17771 -4.09477 -15.3195 
2 1 2.36631 -3.51575 -15.2397 
ITEM: TIMESTEP
132000
ITEM: NUMBER OF ATOMS
14
ITEM: BOX BOUNDS pp pp pp
-2.5000000000000000e+01 2.9000000000000000e+01
-2.5000000000000000e+01 2.5000000000000000e+01
-2.5000000000000000e+01 2.5000000000000000e+01
ITEM: ATOMS id type x y z 
8 1 4.0535 -4.49522 -16.6974 
9 1 3.1029 -4.32387 -16.4386 
13 1 4.64643 -3.73273 -16.9563 
10 1 2.74522 -3.39002 -16.4387 
14 1 3.69582 -3.56138 -16.6975 
11 1 3.33814 -2.62753 -16.6976 
12 1 4.28875 -2.79889 -16.9565 
5 1 2.15805 -5.49994 -15.383 
6 1 3.07049 -5.09087 -15.3939 
4 1 1.34981 -4.91717 -15.2985 
7 1 2.26224 -4.5081 -15.3095 
3 1 1.454 -3.92533 -15.2251 
1 1 3.17468 -4.09903 -15.3204 
2 1 2.36644 -3.51626 -15.236 
ITEM: TIMESTEP
133000
ITEM: NUMBER OF ATOMS
14
ITEM: BOX BOUNDS pp pp pp
-2.5000000000000000e+01 2.9000000000000000e+01
-2.5000000000000000e+01 2.5000000000000000e+01
-2.5000000000000000e+01 2.5000000000000000e+01
ITEM: ATOMS id type x y z 
8 1 4.061 -4.50192 -16.6962 
9 1 3.11211 -4.33382 -16.4291 
13 1 4.64882 -3.73748 -16.961 
10 1 2.75105 -3.40128 -16.4267 
14 1 3.69994 -3.56938 -16.6938 
11 1 3.33888 -2.63684 -16.6915 
12 1 4.28776 -2.80494 -16.9586 
5 1 2.14784 -5.49885 -15.3859 
6 1 3.06227 -5.09431 -15.3982 
4 1 1.34279 -4.91237 -15.2968 
7 1 2.25722 -4.50783 -15.3091 
3 1 1.45217 -3.92135 -15.22 
1 1 3.17166 -4.10328 -15.3214 
2 1 2.3666 -3.5168 -15.2323 
ITEM: TIMESTEP
134000
ITEM: NUMBER OF ATOMS
14
ITEM: BOX BOUNDS pp pp pp
-2.5000000000000000e+01 2.9000000000000000e+01
-2.5000000000000000e+01 2.5000000000000000e+01
-2.5000000000000000e+01 2.5000000000000000e+01
ITEM: ATOMS id type x y z 
8 1 4.06845 -4.50861 -16.695 
9 1 3.12137 -4.34375 -16.4196 
13 1 4.65111 -3.74225 -16.9655 
10 1 2.75695 -3.41253 -16.4147 
14 1 3.70403 -3.57739 -16.6901 
11 1 3.3396 -2.64617 -16.6853 
12 1 4.28669 -2.81103 -16.9607 
5 1 2.13764 -5.49772 -15.3888 
6 1 3.05405 -5.0977 -15.4024 
4 1 1.33581 -4.90756 -15.2952 
7 1 2.25222 -4.50754 -15.3087 
3 1 1.45039 -3.91738 -15.2151 
1 1 3.16863 -4.10752 -15.3223 
2 1 2.3668 -3.51736 -15.2286 
ITEM: TIMESTEP
135000
ITEM: NUMBER OF ATOMS
14
ITEM: BOX BOUNDS pp pp pp
-2.5000000000000000e+01 2.9000000000000000e+01
-2.5000000000000000e+01 2.5000000000000000e+01
-2.5000000000000000e+01 2.5000000000000000e+01
ITEM: ATOMS id type x y z 
8 1 4.07587 -4.5153 -16.6938 
9 1 3.13067 -4.35368 -16.4101 
13 1 4.6533 -3.74704 -16.9701 
10 1 2.7629 -3.42379 -16.4027 
14 1 3.7081 -3.58542 -16.6864 
11 1 3.34032 -2.65553 -16.6791 
12 1 4.28553 -2.81716 -16.9627 
5 1 2.12747 -5.49652 -15.3918 
6 1 3.04582 -5.10104 -15.4067 
4 1 1.32889 -4.90271 -15.2935 
7 1 2.24724 -4.50723 -15.3084 
3 1 1.44866 -3.91342 -15.2101 
1 1 3.16559 -4.11175 -15.3233 
2 1 2.36702 -3.51794 -15.225 
ITEM: TIMESTEP
136000
ITEM: NUMBER OF ATOMS
14
ITEM: BOX BOUNDS pp pp pp
-2.5000000000000000e+01 2.9000000000000000e+01
-2.5000000000000000e+01 2.5000000000000000e+01
-2.5000000000000000e+01 2.5000000000000000e+01
ITEM: ATOMS id type x y z 
8 1 4.08325 -4.522 -16.6925 
14 1 3.71214 -3.59346 -16.6827 
13 1 4.65538 -3.75187 -16.9746 
11 1 3.34104 -2.66492 -16.6728 
12 1 4.28428 -2.82333 -16.9647 
9 1 3.14001 -4.3636 -16.4006 
10 1 2.7689 -3.43506 -16.3908 
5 1 2.11731 -5.49528 -15.3948 
6 1 3.03758 -5.10434 -15.411 
4 1 1.32201 -4.89785 -15.2919 
7 1 2.24229 -4.50691 -15.3081 
3 1 1.44699 -3.90949 -15.2052 
1 1 3.16256 -4.11597 -15.3243 
2 1 2.36727 -3.51855 -15.2214 
ITEM: TIMESTEP
137000
ITEM: NUMBER OF ATOMS
14
ITEM: BOX BOUNDS pp pp pp
-2.5000000000000000e+01 2.9000000000000000e+01
-2.5000000000000000e+01 2.5000000000000000e+01
-2.5000000000000000e+01 2.5000000000000000e+01
ITEM: ATOMS id type x y z 
8 1 4.09058 -4.5287 -16.6913 
14 1 3.71616 -3.60153 -16.6789 
13 1 4.65737 -3.75671 -16.979 
11 1 3.34174 -2.67435 -16.6666 
12 1 4.28295 -2.82954 -16.9666 
9 1 3.14937 -4.37351 -16.3912 
10 1 2.77495 -3.44634 -16.3788 
5 1 2.10718 -5.49397 -15.3978 
6 1 3.02935 -5.10758 -15.4152 
4 1 1.31519 -4.89296 -15.2903 
7 1 2.23736 -4.50657 -15.3077 
3 1 1.44537 -3.90557 -15.2003 
1 1 3.15953 -4.12018 -15.3252 
2 1 2.36754 -3.51918 -15.2177 
ITEM: TIMESTEP
138000
ITEM: NUMBER OF ATOMS
14
ITEM: BOX BOUNDS pp pp pp
-2.5000000000000000e+01 2.9000000000000000e+01
-2.5000000000000000e+01 2.5000000000000000e+01
-2.5000000000000000e+01 2.5000000000000000e+01
ITEM: ATOMS id type x y z 
8 1 4.09788 -4.53541 -16.69 
14 1 3.72016 -3.60961 -16.6752 
13 1 4.65927 -3.76158 -16.9834 
11 1 3.34244 -2.68381 -16.6603 
12 1 4.28155 -2.83578 -16.9685 
9 1 3.15877 -4.38344 -16.3819 
10 1 2.78105 -3.45764 -16.367 
5 1 2.09707 -5.4926 -15.4008 
6 1 3.02111 -5.11076 -15.4194 
4 1 1.30841 -4.88805 -15.2888 
7 1 2.23245 -4.50621 -15.3074 
3 1 1.4438 -3.90167 -15.1954 
1 1 3.15649 -4.12437 -15.3261 
2 1 2.36784 -3.51983 -15.214 
ITEM: TIMESTEP
139000
ITEM: NUMBER OF ATOMS
14
ITEM: BOX BOUNDS pp pp pp
-2.5000000000000000e+01 2.9000000000000000e+01
-2.5000000000000000e+01 2.5000000000000000e+01
-2.5000000000000000e+01 2.5000000000000000e+01
ITEM: ATOMS id type x y z 
8 1 4.10513 -4.54213 -16.6889 
14 1 3.72413 -3.61772 -16.6714 
13 1 4.66107 -3.76646 -16.9877 
11 1 3.34313 -2.69331 -16.654 
12 1 4.28007 -2.84205 -16.9702 
9 1 3.16819 -4.39339 -16.3727 
10 1 2.78719 -3.46898 -16.3552 
5 1 2.08699 -5.49116 -15.4038 
6 1 3.01288 -5.11387 -15.4236 
4 1 1.30169 -4.88312 -15.2873 
7 1 2.22757 -4.50583 -15.3071 
3 1 1.44226 -3.89778 -15.1906 
1 1 3.15346 -4.12854 -15.3268 
2 1 2.36815 -3.5205 -15.2103 
ITEM: TIMESTEP
140000
ITEM: NUMBER OF ATOMS
14
ITEM: BOX BOUNDS pp pp pp
-2.5000000000000000e+01 2.9000000000000000e+01
-2.5000000000000000e+01 2.5000000000000000e+01
-2.5000000000000000e+01 2.5000000000000000e+01
ITEM: ATOMS id type x y z 
8 1 4.11235 -4.54886 -16.6878 
14 1 3.72808 -3.62586 -16.6677 
13 1 4.6628 -3.77136 -16.992 
11 1 3.34381 -2.70285 -16.6476 
12 1 4.27854 -2.84835 -16.9719 
9 1 3.17762 -4.40336 -16.3636 
10 1 2.79335 -3.48035 -16.3435 
5 1 2.07696 -5.48965 -15.4069 
6 1 3.00466 -5.11691 -15.4276 
4 1 1.29501 -4.87815 -15.286 
7 1 2.22271 -4.50542 -15.3067 
3 1 1.44076 -3.89392 -15.1858 
1 1 3.15042 -4.13268 -15.3274 
2 1 2.36847 -3.52118 -15.2065 
ITEM: TIMESTEP
141000
ITEM: NUMBER OF ATOMS
14
ITEM: BOX BOUNDS pp pp pp
-2.5000000000000000e+01 2.9000000000000000e+01
-2.5000000000000000e+01 2.5000000000000000e+01
-2.5000000000000000e+01 2.5000000000000000e+01
ITEM: ATOMS id type x y z 
8 1 4.11952 -4.5556 -16.6869 
14 1 3.732 -3.63402 -16.6641 
13 1 4.66446 -3.77626 -16.9962 
11 1 3.34449 -2.71244 -16.6413 
12 1 4.27695 -2.85468 -16.9734 
9 1 3.18706 -4.41337 -16.3548 
10 1 2.79954 -3.49179 -16.332 
5 1 2.06696 -5.48806 -15.41 
6 1 2.99646 -5.11988 -15.4316 
4 1 1.28838 -4.87316 -15.2847 
7 1 2.21788 -4.50497 -15.3063 
3 1 1.43929 -3.89006 -15.181 
1 1 3.14738 -4.13679 -15.3278 
2 1 2.3688 -3.52188 -15.2026 
ITEM: TIMESTEP
142000
ITEM: NUMBER OF ATOMS
14
ITEM: BOX BOUNDS pp pp pp
-2.5000000000000000e+01 2.9000000000000000e+01
-2.5000000000000000e+01 2.5000000000000000e+01
-2.5000000000000000e+01 2.5000000000000000e+01
ITEM: ATOMS id type x y z 
8 1 4.12666 -4.56237 -16.6861 
14 1 3.73591 -3.64223 -16.6605 
13 1 4.66606 -3.78116 -17.0004 
11 1 3.34516 -2.72209 -16.6349 
12 1 4.27531 -2.86102 -16.9747 
9 1 3.19651 -4.42344 -16.3462 
10 1 2.80575 -3.5033 -16.3206 
5 1 2.05701 -5.48639 -15.4131 
6 1 2.98829 -5.12275 -15.4353 
4 1 1.28179 -4.86813 -15.2836 
7 1 2.21306 -4.50449 -15.3058 
3 1 1.43784 -3.88623 -15.1763 
1 1 3.14434 -4.14085 -15.328 
2 1 2.36911 -3.52259 -15.1985 
ITEM: TIMESTEP
143000
ITEM: NUMBER OF ATOMS
14
ITEM: BOX BOUNDS pp pp pp
-2.5000000000000000e+01 2.9000000000000000e+01
-2.5000000000000000e+01 2.5000000000000000e+01
-2.5000000000000000e+01 2.5000000000000000e+01
ITEM: ATOMS id type x y z 
8 1 4.13376 -4.56915 -16.6855 
14 1 3.73979 -3.65047 -16.657 
13 1 4.66761 -3.78605 -17.0045 
11 1 3.34582 -2.73179 -16.6284 
12 1 4.27364 -2.86737 -16.976 
9 1 3.20595 -4.43358 -16.338 
10 1 2.81197 -3.5149 -16.3094 
5 1 2.04712 -5.48464 -15.4163 
6 1 2.98014 -5.12554 -15.4389 
4 1 1.27525 -4.86307 -15.2826 
7 1 2.20827 -4.50397 -15.3052 
3 1 1.4364 -3.88241 -15.1716 
1 1 3.14129 -4.14487 -15.3279 
2 1 2.36942 -3.5233 -15.1942 
ITEM: TIMESTEP
144000
ITEM: NUMBER OF ATOMS
14
ITEM: BOX BOUNDS pp pp pp
-2.5000000000000000e+01 2.9000000000000000e+01
-2.5000000000000000e+01 2.5000000000000000e+01
-2.5000000000000000e+01 2.5000000000000000e+01
ITEM: ATOMS id type x y z 
8 1 4.14083 -4.57596 -16.6851 