ITEM: TIMESTEP
0
ITEM: NUMBER OF ATOMS
14
ITEM: BOX BOUNDS ff ff ff
-2.5000000000000000e+01 2.6000000000000000e+01
-2.5000000000000000e+01 2.6000000000000000e+01
-2.5000000000000000e+01 2.7000000000000000e+01
ITEM: ATOMS id type x y z 
5 1 -0.5 -0.866025 0 
6 1 0.5 -0.866025 0 
4 1 -1 0 0 
7 1 0 0 0 
1 1 1 0 0 
3 1 -0.5 0.866025 0 
2 1 0.5 0.866025 0 
12 1 0.5 0.133975 2 
13 1 1.5 0.133975 2 
11 1 0 1 2 
14 1 1 1 2 
8 1 2 1 2 
10 1 0.5 1.86603 2 
9 1 1.5 1.86603 2 
ITEM: TIMESTEP
1
ITEM: NUMBER OF ATOMS
14
ITEM: BOX BOUNDS ff ff ff
-2.5000000000000000e+01 2.6000000000000000e+01
-2.5000000000000000e+01 2.6000000000000000e+01
-2.5000000000000000e+01 2.7000000000000000e+01
ITEM: ATOMS id type x y z 
5 1 -0.5 -0.866025 0 
6 1 0.5 -0.866025 0 
4 1 -1 0 0 
7 1 0 0 0 
1 1 1 0 0 
3 1 -0.5 0.866025 0 
2 1 0.5 0.866025 0 
12 1 0.5 0.133975 2 
13 1 1.5 0.133975 2 
11 1 0 1 2 
14 1 1 1 2 
8 1 2 1 2 
10 1 0.5 1.86603 2 
9 1 1.5 1.86603 2 
ITEM: TIMESTEP
1000
ITEM: NUMBER OF ATOMS
14
ITEM: BOX BOUNDS ff ff ff
-2.5000000000000000e+01 2.6000000000000000e+01
-2.5000000000000000e+01 2.6000000000000000e+01
-2.5000000000000000e+01 2.7000000000000000e+01
ITEM: ATOMS id type x y z 
5 1 -0.514776 -0.850974 0.0206663 
6 1 0.484916 -0.85708 -0.00336594 
4 1 -1.00946 0.0180715 0.0272148 
7 1 -0.00977213 0.0119654 0.00318257 
1 1 0.98992 0.00585931 -0.0208497 
3 1 -0.50446 0.881011 0.00973109 
2 1 0.495232 0.874905 -0.0143012 
12 1 0.507748 0.136286 1.98773 
13 1 1.50767 0.138914 1.99991 
11 1 0.00553214 1.00099 1.9798 
14 1 1.00545 1.00362 1.99198 
8 1 2.00538 1.00625 2.00416 
10 1 0.503239 1.86833 1.98405 
9 1 1.50316 1.87096 1.99623 
ITEM: TIMESTEP
2000
ITEM: NUMBER OF ATOMS
14
ITEM: BOX BOUNDS ff ff ff
-2.5000000000000000e+01 2.6000000000000000e+01
-2.5000000000000000e+01 2.6000000000000000e+01
-2.5000000000000000e+01 2.7000000000000000e+01
ITEM: ATOMS id type x y z 
5 1 -0.520979 -0.828212 0.0503921 
6 1 0.477995 -0.843023 0.00761243 
4 1 -1.00757 0.045121 0.073171 
7 1 -0.00859457 0.0303107 0.0303914 
1 1 0.99038 0.0155004 -0.0123883 
3 1 -0.495185 0.903644 0.0531703 
2 1 0.50379 0.888834 0.0103906 
12 1 0.502105 0.155308 1.99836 
13 1 1.50141 0.150004 2.03529 
11 1 0.00778884 1.02374 1.95987 
14 1 1.00709 1.01843 1.99679 
8 1 2.0064 1.01313 2.03372 
10 1 0.512776 1.88686 1.95829 
9 1 1.51208 1.88156 1.99522 
ITEM: TIMESTEP
3000
ITEM: NUMBER OF ATOMS
14
ITEM: BOX BOUNDS ff ff ff
-2.5000000000000000e+01 2.6000000000000000e+01
-2.5000000000000000e+01 2.6000000000000000e+01
-2.5000000000000000e+01 2.7000000000000000e+01
ITEM: ATOMS id type x y z 
5 1 -0.499436 -0.811414 0.0687331 
6 1 0.497903 -0.815476 -0.00406321 
4 1 -0.993088 0.0563871 0.125558 
7 1 0.00425073 0.052325 0.0527619 
1 1 1.00159 0.0482628 -0.0200345 
3 1 -0.489401 0.920126 0.109587 
2 1 0.507937 0.916064 0.0367906 
12 1 0.474974 0.199656 2.03968 
13 1 1.47263 0.170261 2.10141 
11 1 0.00564236 1.07738 1.94305 
14 1 1.0033 1.04798 2.00479 
8 1 2.00096 1.01858 2.06652 
10 1 0.53397 1.9257 1.90816 
9 1 1.53163 1.8963 1.96989 
ITEM: TIMESTEP
4000
ITEM: NUMBER OF ATOMS
14
ITEM: BOX BOUNDS ff ff ff
-2.5000000000000000e+01 2.6000000000000000e+01
-2.5000000000000000e+01 2.6000000000000000e+01
-2.5000000000000000e+01 2.7000000000000000e+01
ITEM: ATOMS id type x y z 
5 1 -0.466161 -0.800576 0.0722819 
6 1 0.530353 -0.787156 -0.010062 
4 1 -0.973685 0.0582079 0.142352 
7 1 0.0228287 0.0716274 0.0600084 
1 1 1.01934 0.085047 -0.0223356 
3 1 -0.484695 0.930411 0.130079 
2 1 0.511818 0.943831 0.0477348 
12 1 0.441942 0.256744 2.08798 
13 1 1.43887 0.1858 2.12107 
11 1 0.00781228 1.15017 1.97253 
14 1 1.00474 1.07922 2.00561 
8 1 2.00168 1.00828 2.03869 
10 1 0.570615 1.97264 1.89015 
9 1 1.56755 1.9017 1.92323 
ITEM: TIMESTEP
5000
ITEM: NUMBER OF ATOMS
14
ITEM: BOX BOUNDS ff ff ff
-2.5000000000000000e+01 2.6000000000000000e+01
-2.5000000000000000e+01 2.6000000000000000e+01
-2.5000000000000000e+01 2.7000000000000000e+01
ITEM: ATOMS id type x y z 
5 1 -0.423072 -0.753261 0.0414796 
6 1 0.57502 -0.724448 -0.0131363 
4 1 -0.944971 0.0971942 0.107414 
7 1 0.0531209 0.126007 0.0527985 
1 1 1.05121 0.15482 -0.0018175 
3 1 -0.468778 0.976462 0.118733 
2 1 0.529314 1.00528 0.0641173 
12 1 0.396916 0.327702 2.14155 
13 1 1.3899 0.20957 2.14676 
11 1 0.00238844 1.23864 2.02096 
14 1 0.995373 1.12051 2.02618 
8 1 1.98836 1.00238 2.03139 
10 1 0.600845 2.03144 1.90559 
9 1 1.59383 1.91331 1.91081 
ITEM: TIMESTEP
6000
ITEM: NUMBER OF ATOMS
14
ITEM: BOX BOUNDS ff ff ff
-2.5000000000000000e+01 2.6000000000000000e+01
-2.5000000000000000e+01 2.6000000000000000e+01
-2.5000000000000000e+01 2.7000000000000000e+01
ITEM: ATOMS id type x y z 
5 1 -0.379102 -0.695502 -0.0174393 
6 1 0.619356 -0.640971 -0.027765 
4 1 -0.924699 0.139265 0.0566422 
7 1 0.07376 0.193796 0.0463165 
1 1 1.07222 0.248327 0.0359908 
3 1 -0.471837 1.02856 0.120398 
2 1 0.526622 1.08309 0.110072 
12 1 0.382422 0.378099 2.2268 
13 1 1.37021 0.226914 2.18916 
11 1 0.012496 1.29897 2.10374 
14 1 1.00028 1.14779 2.0661 
8 1 1.98807 0.996603 2.02847 
10 1 0.630359 2.06866 1.94305 
9 1 1.61815 1.91748 1.90541 
ITEM: TIMESTEP
7000
ITEM: NUMBER OF ATOMS
14
ITEM: BOX BOUNDS ff ff ff
-2.5000000000000000e+01 2.6000000000000000e+01
-2.5000000000000000e+01 2.6000000000000000e+01
-2.5000000000000000e+01 2.7000000000000000e+01
ITEM: ATOMS id type x y z 
5 1 -0.332516 -0.630342 -0.0496931 
6 1 0.664185 -0.560112 -0.00902125 
4 1 -0.895257 0.19283 0.0258781 
7 1 0.101444 0.263059 0.06655 
1 1 1.09815 0.333289 0.107222 
3 1 -0.461296 1.08623 0.142121 
2 1 0.535405 1.15646 0.182793 
12 1 0.359872 0.42483 2.32126 
13 1 1.3398 0.236908 2.25474 
11 1 0.0205831 1.35807 2.20317 
14 1 1.00051 1.17015 2.13665 
8 1 1.98044 0.982226 2.07013 
10 1 0.661223 2.10339 2.01856 
9 1 1.64115 1.91547 1.95204 
ITEM: TIMESTEP
8000
ITEM: NUMBER OF ATOMS
14
ITEM: BOX BOUNDS ff ff ff
-2.5000000000000000e+01 2.6000000000000000e+01
-2.5000000000000000e+01 2.6000000000000000e+01
-2.5000000000000000e+01 2.7000000000000000e+01
ITEM: ATOMS id type x y z 
5 1 -0.300833 -0.585254 -0.0100565 
6 1 0.693818 -0.524114 0.0732001 
4 1 -0.858075 0.243995 0.0327043 
7 1 0.136576 0.305135 0.115961 
1 1 1.13123 0.366276 0.199218 
3 1 -0.420665 1.13438 0.158722 
2 1 0.573985 1.19552 0.241978 
13 1 1.30751 0.26727 2.29562 
11 1 0.0142661 1.41943 2.30227 
14 1 0.984792 1.20756 2.18742 
8 1 1.95532 0.995688 2.07257 
10 1 0.662073 2.14785 2.07921 
9 1 1.6326 1.93598 1.96436 
12 1 0.336985 0.479141 2.41047 
ITEM: TIMESTEP
9000
ITEM: NUMBER OF ATOMS
14
ITEM: BOX BOUNDS ff ff ff
-2.5000000000000000e+01 2.6000000000000000e+01
-2.5000000000000000e+01 2.6000000000000000e+01
-2.5000000000000000e+01 2.7000000000000000e+01
ITEM: ATOMS id type x y z 
5 1 -0.287577 -0.541425 0.0659129 
6 1 0.706637 -0.497772 0.16406 
4 1 -0.828658 0.29945 0.0785741 
7 1 0.165556 0.343104 0.176721 
1 1 1.15977 0.386758 0.274869 
3 1 -0.375525 1.18398 0.189383 
2 1 0.618689 1.22763 0.28753 
13 1 1.27546 0.302504 2.35489 
14 1 0.973116 1.24969 2.24799 
8 1 1.92161 1.00224 2.05016 
10 1 0.670773 2.19688 2.14109 
9 1 1.61926 1.94943 1.94326 
12 1 0.326969 0.549952 2.55272 
11 1 0.0246263 1.49714 2.44582 
ITEM: TIMESTEP
10000
ITEM: NUMBER OF ATOMS
14
ITEM: BOX BOUNDS ff ff ff
-2.5000000000000000e+01 2.6000000000000000e+01
-2.5000000000000000e+01 2.6000000000000000e+01
-2.5000000000000000e+01 2.7000000000000000e+01
ITEM: ATOMS id type x y z 
5 1 -0.280296 -0.484262 0.0941571 
6 1 0.715916 -0.473619 0.180456 
4 1 -0.794488 0.372649 0.130352 
7 1 0.201724 0.383292 0.216651 
1 1 1.19794 0.393936 0.30295 
3 1 -0.312467 1.2402 0.252845 
2 1 0.683745 1.25085 0.339144 
14 1 0.948997 1.28604 2.32329 
8 1 1.86084 0.987121 2.04187 
10 1 0.667734 2.23502 2.18066 
9 1 1.57957 1.93609 1.89925 
13 1 1.23026 0.337073 2.46592 
12 1 0.318421 0.635997 2.74733 
11 1 0.0371581 1.58497 2.6047 
ITEM: TIMESTEP
11000
ITEM: NUMBER OF ATOMS
14
ITEM: BOX BOUNDS ff ff ff
-2.5000000000000000e+01 2.6000000000000000e+01
-2.5000000000000000e+01 2.6000000000000000e+01
-2.5000000000000000e+01 2.7000000000000000e+01
ITEM: ATOMS id type x y z 
5 1 -0.253805 -0.413323 0.0882119 
6 1 0.741353 -0.442523 0.182063 
4 1 -0.735526 0.461426 0.140751 
7 1 0.259632 0.432225 0.234602 
1 1 1.25479 0.403025 0.328454 
3 1 -0.222088 1.30697 0.287141 
2 1 0.77307 1.27777 0.380993 
14 1 0.918259 1.31946 2.40489 
8 1 1.79726 0.997143 2.0535 
10 1 0.609886 2.24919 2.20362 
9 1 1.48888 1.92687 1.85223 
13 1 1.22663 0.38973 2.60617 
12 1 0.347635 0.712046 2.95756 
11 1 0.039262 1.64178 2.75629 
ITEM: TIMESTEP
12000
ITEM: NUMBER OF ATOMS
14
ITEM: BOX BOUNDS ff ff ff
-2.5000000000000000e+01 2.6000000000000000e+01
-2.5000000000000000e+01 2.6000000000000000e+01
-2.5000000000000000e+01 2.7000000000000000e+01
ITEM: ATOMS id type x y z 
6 1 0.7745 -0.39234 0.14718 
4 1 -0.681144 0.546315 0.141748 
5 1 -0.220213 -0.337386 0.0604163 
7 1 0.313568 0.491361 0.228511 
1 1 1.30828 0.436408 0.315275 
3 1 -0.147363 1.37506 0.309843 
2 1 0.847349 1.32011 0.396606 
8 1 1.69927 1.02184 2.08532 
10 1 0.482462 2.24362 2.24853 
9 1 1.32203 1.90925 1.82037 
13 1 1.23693 0.468795 2.77842 
12 1 0.397354 0.803164 3.20657 
14 1 0.859695 1.35621 2.51347 
11 1 0.0201221 1.69058 2.94163 
ITEM: TIMESTEP
13000
ITEM: NUMBER OF ATOMS
14
ITEM: BOX BOUNDS ff ff ff
-2.5000000000000000e+01 2.6000000000000000e+01
-2.5000000000000000e+01 2.6000000000000000e+01
-2.5000000000000000e+01 2.7000000000000000e+01
ITEM: ATOMS id type x y z 
5 1 -0.216348 -0.248588 0.0135782 
6 1 0.778567 -0.337362 0.0611509 
1 1 1.34236 0.46144 0.271032 
4 1 -0.647467 0.638989 0.175886 
7 1 0.347448 0.550215 0.223459 
3 1 -0.0836722 1.43779 0.385767 
2 1 0.911243 1.34902 0.43334 
8 1 1.57498 1.02445 2.1305 
10 1 0.381043 2.25932 2.35321 
9 1 1.15981 1.88888 1.84696 
13 1 1.21138 0.530462 2.92029 
14 1 0.796214 1.39489 2.63675 
11 1 0.0174439 1.76533 3.143 
12 1 0.432615 0.900904 3.42654 
ITEM: TIMESTEP
14000
ITEM: NUMBER OF ATOMS
14
ITEM: BOX BOUNDS ff ff ff
-2.5000000000000000e+01 2.6000000000000000e+01
-2.5000000000000000e+01 2.6000000000000000e+01
-2.5000000000000000e+01 2.7000000000000000e+01
ITEM: ATOMS id type x y z 
5 1 -0.239523 -0.206322 0.000977305 
6 1 0.752205 -0.331033 -0.0294045 
1 1 1.35921 0.44442 0.144414 
4 1 -0.624241 0.693841 0.205177 
7 1 0.367487 0.56913 0.174795 
2 1 0.974496 1.34458 0.348614 
3 1 -0.0172319 1.46929 0.378995 
8 1 1.48409 1.07079 2.24916 
9 1 1.08469 1.9585 2.02016 
13 1 1.14889 0.561138 3.04156 
14 1 0.74949 1.44886 2.81256 
10 1 0.350093 2.33657 2.58357 
11 1 0.0148883 1.82693 3.37597 
12 1 0.414285 0.939208 3.60496 
ITEM: TIMESTEP
15000
ITEM: NUMBER OF ATOMS
14
ITEM: BOX BOUNDS ff ff ff
-2.5000000000000000e+01 2.6000000000000000e+01
-2.5000000000000000e+01 2.6000000000000000e+01
-2.5000000000000000e+01 2.7000000000000000e+01
ITEM: ATOMS id type x y z 
5 1 -0.238011 -0.151269 0.00401646 
6 1 0.746061 -0.297315 -0.0973453 
1 1 1.38095 0.463425 0.037535 
4 1 -0.587195 0.755517 0.240258 
7 1 0.396877 0.609471 0.138897 
2 1 1.03176 1.37021 0.273777 
3 1 0.0476928 1.51626 0.375139 
8 1 1.41468 1.11902 2.37216 
9 1 1.03856 2.02077 2.15914 
13 1 1.10075 0.625163 3.18306 
14 1 0.724633 1.52692 2.97003 
10 1 0.348516 2.42867 2.75701 
12 1 0.410703 1.03306 3.78093 
11 1 0.0345864 1.93481 3.56791 
ITEM: TIMESTEP
16000
ITEM: NUMBER OF ATOMS
14
ITEM: BOX BOUNDS ff ff ff
-2.5000000000000000e+01 2.6000000000000000e+01
-2.5000000000000000e+01 2.6000000000000000e+01
-2.5000000000000000e+01 2.7000000000000000e+01
ITEM: ATOMS id type x y z 
5 1 -0.216611 -0.102696 0.0306641 
6 1 0.759389 -0.241474 -0.137159 
1 1 1.3944 0.527063 -0.0589964 
4 1 -0.557598 0.804619 0.276649 
7 1 0.418402 0.665841 0.108826 
2 1 1.05342 1.43438 0.186988 
3 1 0.0774159 1.57316 0.354811 
9 1 1.01093 2.08621 2.29838 
8 1 1.35745 1.17262 2.51118 
13 1 1.05577 0.704351 3.34167 
14 1 0.709254 1.61794 3.12887 
10 1 0.362738 2.53153 2.91607 
12 1 0.407574 1.14967 3.95936 
11 1 0.061058 2.06325 3.74656 
ITEM: TIMESTEP
17000
ITEM: NUMBER OF ATOMS
14
ITEM: BOX BOUNDS ff ff ff
-2.5000000000000000e+01 2.6000000000000000e+01
-2.5000000000000000e+01 2.6000000000000000e+01
-2.5000000000000000e+01 2.7000000000000000e+01
ITEM: ATOMS id type x y z 
5 1 -0.168483 -0.0555103 0.0785072 
6 1 0.796907 -0.172611 -0.154538 
4 1 -0.520333 0.851254 0.310843 
7 1 0.445057 0.734153 0.077798 
1 1 1.41045 0.617052 -0.155247 
3 1 0.0932072 1.64092 0.310134 
2 1 1.0586 1.52382 0.0770887 
9 1 0.990394 2.16015 2.42867 
8 1 1.27131 1.22154 2.62893 
14 1 0.691241 1.71836 3.27445 
10 1 0.410328 2.65697 3.07419 
12 1 0.392088 1.27658 4.12022 
13 1 0.972153 0.779756 3.4747 
11 1 0.111175 2.21519 3.91996 
ITEM: TIMESTEP
18000
ITEM: NUMBER OF ATOMS
14
ITEM: BOX BOUNDS ff ff ff
-2.5000000000000000e+01 2.6000000000000000e+01
-2.5000000000000000e+01 2.6000000000000000e+01
-2.5000000000000000e+01 2.7000000000000000e+01
ITEM: ATOMS id type x y z 
5 1 -0.115104 -0.0180809 0.0861683 
6 1 0.848903 -0.127945 -0.155948 
4 1 -0.48113 0.891898 0.281012 
7 1 0.482878 0.782034 0.0388961 
1 1 1.44688 0.67217 -0.20322 
3 1 0.116852 1.69201 0.23374 
2 1 1.08086 1.58215 -0.00837607 
8 1 1.17697 1.29097 2.74804 
9 1 0.977785 2.25379 2.56558 
10 1 0.448608 2.78848 3.22443 
12 1 0.317797 1.39751 4.2482 
13 1 0.846975 0.862827 3.58935 
11 1 0.118614 2.36034 4.06574 
14 1 0.647791 1.82565 3.40689 
ITEM: TIMESTEP
19000
ITEM: NUMBER OF ATOMS
14
ITEM: BOX BOUNDS ff ff ff
-2.5000000000000000e+01 2.6000000000000000e+01
-2.5000000000000000e+01 2.6000000000000000e+01
-2.5000000000000000e+01 2.7000000000000000e+01
ITEM: ATOMS id type x y z 
5 1 -0.0727693 0.0198054 0.0984641 
6 1 0.89236 -0.0985513 -0.135025 
4 1 -0.446815 0.938084 0.228291 
7 1 0.518314 0.819727 -0.00519786 
1 1 1.48344 0.70137 -0.238687 
3 1 0.144269 1.73801 0.124629 
2 1 1.1094 1.61965 -0.10886 
8 1 1.03712 1.34997 2.8676 
9 1 0.925889 2.33073 2.70717 
13 1 0.682573 0.93719 3.7066 
14 1 0.571338 1.91795 3.54616 
10 1 0.460102 2.89871 3.38573 
11 1 0.10555 2.48593 4.22472 
12 1 0.216786 1.50517 4.38515 
ITEM: TIMESTEP
20000
ITEM: NUMBER OF ATOMS
14
ITEM: BOX BOUNDS ff ff ff
-2.5000000000000000e+01 2.6000000000000000e+01
-2.5000000000000000e+01 2.6000000000000000e+01
-2.5000000000000000e+01 2.7000000000000000e+01
ITEM: ATOMS id type x y z 
5 1 0.00435066 0.0610832 0.115688 
6 1 0.979921 -0.0440086 -0.0772332 
4 1 -0.400261 0.9743 0.1639 
7 1 0.575309 0.869208 -0.0290214 
1 1 1.55088 0.764116 -0.221943 
3 1 0.170697 1.78242 0.0191905 
2 1 1.14627 1.67733 -0.173731 
8 1 0.875778 1.41581 2.9872 
9 1 0.840728 2.40534 2.84721 
13 1 0.51682 1.01719 3.83115 
14 1 0.481769 2.00673 3.69116 
10 1 0.446719 2.99626 3.55118 
12 1 0.122811 1.60811 4.53512 
11 1 0.0877601 2.59765 4.39513 
ITEM: TIMESTEP
21000
ITEM: NUMBER OF ATOMS
14
ITEM: BOX BOUNDS ff ff ff
-2.5000000000000000e+01 2.6000000000000000e+01
-2.5000000000000000e+01 2.6000000000000000e+01
-2.5000000000000000e+01 2.7000000000000000e+01
ITEM: ATOMS id type x y z 
5 1 0.0808981 0.108715 0.0912833 
6 1 1.067 0.0172558 -0.0473942 
4 1 -0.347605 1.0115 0.05438 
7 1 0.6385 0.920042 -0.0842976 
1 1 1.62461 0.828583 -0.222975 
3 1 0.209997 1.82283 -0.121201 
2 1 1.1961 1.73137 -0.259879 
8 1 0.731551 1.48528 3.12779 
9 1 0.764971 2.47354 2.97872 
13 1 0.370724 1.12105 3.98636 
14 1 0.404144 2.10931 3.83729 
10 1 0.437564 3.09757 3.68822 
12 1 0.0433169 1.74508 4.69586 
11 1 0.0767366 2.73334 4.54679 
ITEM: TIMESTEP
22000
ITEM: NUMBER OF ATOMS
14
ITEM: BOX BOUNDS ff ff ff
-2.5000000000000000e+01 2.6000000000000000e+01
-2.5000000000000000e+01 2.6000000000000000e+01
-2.5000000000000000e+01 2.7000000000000000e+01
ITEM: ATOMS id type x y z 
5 1 0.114032 0.139148 0.0479405 
6 1 1.10818 0.0611796 -0.0268072 
4 1 -0.327357 1.02967 -0.0622918 
7 1 0.666792 0.951698 -0.137039 
1 1 1.66094 0.873731 -0.211787 
3 1 0.225402 1.84222 -0.247272 
2 1 1.21955 1.76425 -0.322019 
8 1 0.569915 1.57464 3.26166 
9 1 0.691657 2.55367 3.09832 
13 1 0.189793 1.25607 4.13001 
14 1 0.311535 2.2351 3.96666 
10 1 0.433277 3.21413 3.80332 
12 1 -0.0685869 1.91654 4.83501 
11 1 0.0531552 2.89557 4.67166 
ITEM: TIMESTEP
23000
ITEM: NUMBER OF ATOMS
14
ITEM: BOX BOUNDS ff ff ff
-2.5000000000000000e+01 2.6000000000000000e+01
-2.5000000000000000e+01 2.6000000000000000e+01
-2.5000000000000000e+01 2.7000000000000000e+01
ITEM: ATOMS id type x y z 
5 1 0.162166 0.164172 0.0475618 
6 1 1.16075 0.115972 0.0251194 
4 1 -0.301195 1.02865 -0.147296 
7 1 0.697391 0.980453 -0.169739 
1 1 1.69598 0.932254 -0.192181 
3 1 0.23403 1.84493 -0.364597 
2 1 1.23262 1.79673 -0.38704 
9 1 0.586458 2.6193 3.20522 
13 1 -0.0293515 1.39892 4.26891 
14 1 0.183315 2.35806 4.08227 
8 1 0.373792 1.66017 3.39186 
10 1 0.395981 3.31719 3.89564 
12 1 -0.219829 2.09681 4.95933 
11 1 -0.00716324 3.05594 4.77269 
ITEM: TIMESTEP
24000
ITEM: NUMBER OF ATOMS
14
ITEM: BOX BOUNDS ff ff ff
-2.5000000000000000e+01 2.6000000000000000e+01
-2.5000000000000000e+01 2.6000000000000000e+01
-2.5000000000000000e+01 2.7000000000000000e+01
ITEM: ATOMS id type x y z 
3 1 0.269431 1.83585 -0.520279 
2 1 1.26822 1.82293 -0.472886 
5 1 0.220396 0.207983 0.0693402 
6 1 1.21919 0.195063 0.116734 
4 1 -0.254483 1.02838 -0.249166 
7 1 0.74431 1.01546 -0.201773 
1 1 1.7431 1.00254 -0.154379 
9 1 0.468316 2.66622 3.31835 
8 1 0.145612 1.7442 3.53222 
14 1 0.0303022 2.4813 4.19809 
10 1 0.353006 3.40332 3.98423 
13 1 -0.292402 1.55928 4.41196 
12 1 -0.407711 2.29637 5.07784 
11 1 -0.0850074 3.2184 4.86397 
ITEM: TIMESTEP
25000
ITEM: NUMBER OF ATOMS
14
ITEM: BOX BOUNDS ff ff ff
-2.5000000000000000e+01 2.6000000000000000e+01
-2.5000000000000000e+01 2.6000000000000000e+01
-2.5000000000000000e+01 2.7000000000000000e+01
ITEM: ATOMS id type x y z 
3 1 0.327889 1.80985 -0.660659 
2 1 1.3192 1.83906 -0.532403 
5 1 0.277688 0.246592 0.083459 
6 1 1.269 0.275808 0.211715 
4 1 -0.192867 1.01361 -0.352728 
7 1 0.798444 1.04283 -0.224472 
1 1 1.78975 1.07204 -0.096216 
8 1 -0.0807852 1.82933 3.70543 
9 1 0.36312 2.697 3.48161 
10 1 0.298079 3.46948 4.1133 
12 1 -0.654773 2.50662 5.19265 
13 1 -0.589732 1.73414 4.56095 
14 1 -0.145826 2.60181 4.33713 
11 1 -0.210868 3.37429 4.96882 
ITEM: TIMESTEP
26000
ITEM: NUMBER OF ATOMS
14
ITEM: BOX BOUNDS ff ff ff
-2.5000000000000000e+01 2.6000000000000000e+01
-2.5000000000000000e+01 2.6000000000000000e+01
-2.5000000000000000e+01 2.7000000000000000e+01
ITEM: ATOMS id type x y z 
4 1 -0.111064 0.989297 -0.474541 
3 1 0.414654 1.76942 -0.813689 
2 1 1.38742 1.84939 -0.596131 
5 1 0.335984 0.289135 0.0821644 
6 1 1.30875 0.3691 0.299722 
7 1 0.861702 1.06926 -0.256984 
1 1 1.83447 1.14923 -0.0394261 
8 1 -0.305246 1.90818 3.87262 
9 1 0.258412 2.7078 3.66552 
10 1 0.221134 3.51274 4.25769 
13 1 -0.906181 1.9135 4.6719 
14 1 -0.342523 2.71312 4.4648 
11 1 -0.379801 3.51807 5.05697 
12 1 -0.943458 2.71844 5.26408 
ITEM: TIMESTEP
27000
ITEM: NUMBER OF ATOMS
14
ITEM: BOX BOUNDS ff ff ff
-2.5000000000000000e+01 2.6000000000000000e+01
-2.5000000000000000e+01 2.6000000000000000e+01
-2.5000000000000000e+01 2.7000000000000000e+01
ITEM: ATOMS id type x y z 
4 1 -0.0339727 0.930809 -0.585075 
3 1 0.482616 1.70595 -0.948791 
2 1 1.42619 1.85977 -0.655508 
5 1 0.393008 0.309489 0.0719251 
6 1 1.33658 0.463312 0.365208 
7 1 0.909597 1.08463 -0.291792 
1 1 1.85317 1.23846 0.00149178 
8 1 -0.53111 1.97572 4.03929 
9 1 0.1474 2.69227 3.87747 
13 1 -1.227 2.09674 4.74716 
14 1 -0.548493 2.81329 4.58534 
10 1 0.130017 3.52983 4.42353 
11 1 -0.565876 3.65086 5.1314 
12 1 -1.24439 2.93431 5.29322 
ITEM: TIMESTEP
28000
ITEM: NUMBER OF ATOMS
14
ITEM: BOX BOUNDS ff ff ff
-2.5000000000000000e+01 2.6000000000000000e+01
-2.5000000000000000e+01 2.6000000000000000e+01
-2.5000000000000000e+01 2.7000000000000000e+01
ITEM: ATOMS id type x y z 
4 1 0.054308 0.858272 -0.684747 
3 1 0.561769 1.62327 -1.08131 
2 1 1.45795 1.87262 -0.714325 
5 1 0.443033 0.342623 0.0787968 
6 1 1.33922 0.591972 0.44578 
7 1 0.950494 1.10762 -0.317764 
1 1 1.84668 1.35697 0.0492185 
8 1 -0.733619 2.02173 4.17156 
9 1 0.0298215 2.6604 4.07533 
13 1 -1.50202 2.24759 4.77035 
14 1 -0.738582 2.88626 4.67412 
10 1 0.0248578 3.52493 4.57788 
12 1 -1.50699 3.11212 5.2729 
11 1 -0.743546 3.75079 5.17667 
ITEM: TIMESTEP
29000
ITEM: NUMBER OF ATOMS
14
ITEM: BOX BOUNDS ff ff ff
-2.5000000000000000e+01 2.6000000000000000e+01
-2.5000000000000000e+01 2.6000000000000000e+01
-2.5000000000000000e+01 2.7000000000000000e+01
ITEM: ATOMS id type x y z 
4 1 0.140937 0.761098 -0.781229 
3 1 0.656794 1.49798 -1.21815 
2 1 1.49357 1.84288 -0.792892 
5 1 0.461858 0.36912 0.0809554 
6 1 1.29864 0.71402 0.506216 
7 1 0.977715 1.106 -0.355968 
1 1 1.81449 1.4509 0.0692927 
9 1 -0.126123 2.59963 4.30697 
13 1 -1.78141 2.4078 4.77942 
8 1 -0.970119 2.06328 4.30708 
14 1 -0.937418 2.94415 4.77931 
10 1 -0.0934227 3.4805 4.7792 
12 1 -1.74871 3.28867 5.25165 
11 1 -0.904717 3.82502 5.25154 
ITEM: TIMESTEP
30000
ITEM: NUMBER OF ATOMS
14
ITEM: BOX BOUNDS ff ff ff
-2.5000000000000000e+01 2.6000000000000000e+01
-2.5000000000000000e+01 2.6000000000000000e+01
-2.5000000000000000e+01 2.7000000000000000e+01
ITEM: ATOMS id type x y z 
4 1 0.237638 0.656091 -0.848201 
3 1 0.75236 1.3721 -1.31978 
2 1 1.52234 1.81769 -0.863072 
5 1 0.4929 0.38566 0.0800818 
6 1 1.26288 0.831244 0.536788 
7 1 1.00762 1.10167 -0.391495 
1 1 1.77761 1.54726 0.0652106 
8 1 -1.20955 2.13923 4.4149 
13 1 -2.01934 2.61433 4.75917 
14 1 -1.1119 3.01345 4.89052 
9 1 -0.30211 2.53835 4.54625 
10 1 -0.204462 3.41257 5.02187 
12 1 -1.9217 3.48854 5.23478 
11 1 -1.01426 3.88766 5.36613 
ITEM: TIMESTEP
31000
ITEM: NUMBER OF ATOMS
14
ITEM: BOX BOUNDS ff ff ff
-2.5000000000000000e+01 2.6000000000000000e+01
-2.5000000000000000e+01 2.6000000000000000e+01
-2.5000000000000000e+01 2.7000000000000000e+01
ITEM: ATOMS id type x y z 
3 1 0.82735 1.26857 -1.37027 
4 1 0.324926 0.572606 -0.857229 
7 1 1.03385 1.11319 -0.404236 
2 1 1.53627 1.80915 -0.917275 
5 1 0.531421 0.417229 0.108803 
6 1 1.24034 0.957811 0.561796 
1 1 1.74277 1.65377 0.0487567 
8 1 -1.39996 2.19096 4.53284 
13 1 -2.18944 2.76558 4.74853 
14 1 -1.26749 3.07442 4.98223 
9 1 -0.478001 2.4998 4.76654 
10 1 -0.345531 3.38326 5.21593 
12 1 -2.05697 3.64905 5.19791 
11 1 -1.13502 3.95789 5.43161 
ITEM: TIMESTEP
32000
ITEM: NUMBER OF ATOMS
14
ITEM: BOX BOUNDS ff ff ff
-2.5000000000000000e+01 2.6000000000000000e+01
-2.5000000000000000e+01 2.6000000000000000e+01
-2.5000000000000000e+01 2.7000000000000000e+01
ITEM: ATOMS id type x y z 
3 1 0.87185 1.17379 -1.40828 
4 1 0.401526 0.484217 -0.857567 
7 1 1.05021 1.11129 -0.426306 
2 1 1.52054 1.80086 -0.977025 
5 1 0.579887 0.421722 0.124412 
1 1 1.6989 1.73836 0.00495368 
6 1 1.22857 1.0488 0.555672 
8 1 -1.58568 2.23484 4.67739 
13 1 -2.34372 2.88117 4.76472 
14 1 -1.42828 3.13953 5.07331 
9 1 -0.670242 2.4932 4.98598 
12 1 -2.18632 3.78587 5.16064 
11 1 -1.27089 4.04423 5.46923 
10 1 -0.512848 3.3979 5.3819 
ITEM: TIMESTEP
33000
ITEM: NUMBER OF ATOMS
14
ITEM: BOX BOUNDS ff ff ff
-2.5000000000000000e+01 2.6000000000000000e+01
-2.5000000000000000e+01 2.6000000000000000e+01
-2.5000000000000000e+01 2.7000000000000000e+01
ITEM: ATOMS id type x y z 
3 1 0.879252 1.10656 -1.42584 
4 1 0.425978 0.433584 -0.841328 
7 1 1.02732 1.12271 -0.436992 
2 1 1.4806 1.79568 -1.0215 
5 1 0.57405 0.449738 0.147517 
1 1 1.62867 1.81184 -0.0326556 
6 1 1.1754 1.13886 0.551853 
8 1 -1.76221 2.2887 4.77145 
13 1 -2.49356 2.97051 4.75508 
14 1 -1.60086 3.20399 5.14052 
9 1 -0.869508 2.52219 5.15689 
12 1 -2.33221 3.8858 5.12416 
11 1 -1.43951 4.11928 5.50959 
10 1 -0.708155 3.43747 5.52596 
ITEM: TIMESTEP
34000
ITEM: NUMBER OF ATOMS
14
ITEM: BOX BOUNDS ff ff ff
-2.5000000000000000e+01 2.6000000000000000e+01
-2.5000000000000000e+01 2.6000000000000000e+01
-2.5000000000000000e+01 2.7000000000000000e+01
ITEM: ATOMS id type x y z 
3 1 0.894876 1.02796 -1.44407 
4 1 0.434413 0.388464 -0.828428 
7 1 1.00021 1.12319 -0.454201 
2 1 1.46068 1.76269 -1.06984 
5 1 0.53975 0.483692 0.161439 
1 1 1.56601 1.85792 -0.0799749 
6 1 1.10555 1.21842 0.535665 
8 1 -1.88268 2.36336 4.81129 
13 1 -2.59547 3.05875 4.71982 
14 1 -1.75191 3.26937 5.21382 
9 1 -1.03912 2.57399 5.30529 
12 1 -2.4647 3.96476 5.12235 
11 1 -1.62114 4.17539 5.61635 
10 1 -0.908347 3.48 5.70782 
ITEM: TIMESTEP
35000
ITEM: NUMBER OF ATOMS
14
ITEM: BOX BOUNDS ff ff ff
-2.5000000000000000e+01 2.6000000000000000e+01
-2.5000000000000000e+01 2.6000000000000000e+01
-2.5000000000000000e+01 2.7000000000000000e+01
ITEM: ATOMS id type x y z 
3 1 0.878573 0.989019 -1.46127 
4 1 0.387604 0.388873 -0.829789 
7 1 0.952876 1.13336 -0.474541 
2 1 1.44384 1.73351 -1.10603 
5 1 0.461907 0.533217 0.156945 
6 1 1.02718 1.27771 0.512193 
1 1 1.51815 1.87785 -0.119293 
13 1 -2.67458 3.14872 4.6715 
8 1 -1.98972 2.43875 4.83555 
9 1 -1.20558 2.62751 5.42673 
12 1 -2.57529 4.04745 5.09862 
14 1 -1.89043 3.33748 5.26268 
10 1 -1.10629 3.52623 5.85385 
11 1 -1.79114 4.2362 5.6898 
ITEM: TIMESTEP
36000
ITEM: NUMBER OF ATOMS
14
ITEM: BOX BOUNDS ff ff ff
-2.5000000000000000e+01 2.6000000000000000e+01
-2.5000000000000000e+01 2.6000000000000000e+01
-2.5000000000000000e+01 2.7000000000000000e+01
ITEM: ATOMS id type x y z 
3 1 0.835871 0.982468 -1.47631 
4 1 0.320269 0.412551 -0.836508 
7 1 0.906577 1.14587 -0.492289 
2 1 1.42218 1.71579 -1.13209 
5 1 0.390975 0.575952 0.147515 
6 1 0.977283 1.30927 0.491733 
1 1 1.49289 1.87919 -0.148071 
13 1 -2.70196 3.24371 4.5762 
8 1 -2.03931 2.53236 4.81043 
12 1 -2.68947 4.11801 5.06144 
9 1 -1.36417 2.69529 5.5299 
14 1 -2.02682 3.40665 5.29567 
10 1 -1.35168 3.56959 6.01514 
11 1 -2.01433 4.28094 5.78091 
ITEM: TIMESTEP
37000
ITEM: NUMBER OF ATOMS
14
ITEM: BOX BOUNDS ff ff ff
-2.5000000000000000e+01 2.6000000000000000e+01
-2.5000000000000000e+01 2.6000000000000000e+01
-2.5000000000000000e+01 2.7000000000000000e+01
ITEM: ATOMS id type x y z 
3 1 0.758387 1.00078 -1.50026 
4 1 0.226029 0.452092 -0.855638 
7 1 0.84852 1.15754 -0.516748 
2 1 1.38088 1.70623 -1.16137 
5 1 0.316162 0.608856 0.127876 
6 1 0.938652 1.31431 0.466766 
1 1 1.47101 1.86299 -0.177858 
8 1 -2.06649 2.64175 4.77837 
13 1 -2.71542 3.35709 4.5192 
12 1 -2.79673 4.18393 5.07572 
9 1 -1.49887 2.75324 5.59407 
14 1 -2.1478 3.46859 5.3349 
11 1 -2.2291 4.29543 5.89142 
10 1 -1.58017 3.58008 6.1506 
ITEM: TIMESTEP
38000
ITEM: NUMBER OF ATOMS
14
ITEM: BOX BOUNDS ff ff ff
-2.5000000000000000e+01 2.6000000000000000e+01
-2.5000000000000000e+01 2.6000000000000000e+01
-2.5000000000000000e+01 2.7000000000000000e+01
ITEM: ATOMS id type x y z 
3 1 0.647272 1.05575 -1.52581 
4 1 0.0949805 0.530227 -0.87866 
7 1 0.771473 1.18524 -0.542039 
2 1 1.32376 1.71076 -1.18919 
5 1 0.219182 0.659722 0.105111 
6 1 0.895675 1.31474 0.441732 
1 1 1.44797 1.84026 -0.205418 
8 1 -2.07879 2.75006 4.76425 
13 1 -2.72022 3.46722 4.49175 
12 1 -2.89913 4.23715 5.10428 
9 1 -1.61626 2.80285 5.64928 
14 1 -2.25769 3.52 5.37678 
11 1 -2.4366 4.28993 5.98931 
10 1 -1.79517 3.57278 6.26181 
ITEM: TIMESTEP
39000
ITEM: NUMBER OF ATOMS
14
ITEM: BOX BOUNDS ff ff ff
-2.5000000000000000e+01 2.6000000000000000e+01
-2.5000000000000000e+01 2.6000000000000000e+01
-2.5000000000000000e+01 2.7000000000000000e+01
ITEM: ATOMS id type x y z 
3 1 0.544231 1.10476 -1.51908 
4 1 -0.012193 0.601564 -0.857875 
7 1 0.697569 1.22961 -0.53882 
2 1 1.25399 1.73281 -1.20002 
5 1 0.141146 0.726413 0.12238 
6 1 0.850908 1.35446 0.441435 
1 1 1.40733 1.85766 -0.219765 
8 1 -2.06977 2.86514 4.74404 
13 1 -2.72418 3.56848 4.46646 
9 1 -1.71651 2.85211 5.67947 
14 1 -2.37092 3.55545 5.40189 
12 1 -3.02533 4.2588 5.12431 
10 1 -2.01766 3.54243 6.33732 
11 1 -2.67207 4.24577 6.05974 
ITEM: TIMESTEP
40000
ITEM: NUMBER OF ATOMS
14
ITEM: BOX BOUNDS ff ff ff
-2.5000000000000000e+01 2.6000000000000000e+01
-2.5000000000000000e+01 2.6000000000000000e+01
-2.5000000000000000e+01 2.7000000000000000e+01
ITEM: ATOMS id type x y z 
3 1 0.438552 1.16692 -1.49615 
4 1 -0.131422 0.70047 -0.819725 
7 1 0.618038 1.29091 -0.520235 
2 1 1.18801 1.75736 -1.19666 
5 1 0.0480642 0.824455 0.156191 
6 1 0.797523 1.41489 0.455681 
1 1 1.3675 1.88135 -0.220745 
8 1 -2.04998 2.94682 4.76048 
13 1 -2.68561 3.65327 4.44919 
9 1 -1.82774 2.8672 5.73222 
14 1 -2.46337 3.57365 5.42093 
12 1 -3.099 4.28011 5.10963 
10 1 -2.24113 3.49404 6.39266 
11 1 -2.87676 4.20049 6.08137 
ITEM: TIMESTEP
41000
ITEM: NUMBER OF ATOMS
14
ITEM: BOX BOUNDS ff ff ff
-2.5000000000000000e+01 2.6000000000000000e+01
-2.5000000000000000e+01 2.6000000000000000e+01
-2.5000000000000000e+01 2.7000000000000000e+01
ITEM: ATOMS id type x y z 
3 1 0.375372 1.21446 -1.48525 
4 1 -0.236315 0.798863 -0.812111 
7 1 0.541426 1.3492 -0.508382 
2 1 1.15311 1.7648 -1.18152 
5 1 -0.0702608 0.933598 0.164757 
6 1 0.70748 1.48393 0.468487 
1 1 1.31917 1.89953 -0.204653 
8 1 -2.07463 2.99685 4.79754 
13 1 -2.61568 3.76516 4.45554 
12 1 -3.10174 4.35904 5.09667 
9 1 -2.01964 2.82242 5.78068 
14 1 -2.56069 3.59073 5.43867 
10 1 -2.5057 3.4163 6.42181 
11 1 -3.04676 4.18461 6.0798 
ITEM: TIMESTEP
42000
ITEM: NUMBER OF ATOMS
14
ITEM: BOX BOUNDS ff ff ff
-2.5000000000000000e+01 2.6000000000000000e+01
-2.5000000000000000e+01 2.6000000000000000e+01
-2.5000000000000000e+01 2.7000000000000000e+01
ITEM: ATOMS id type x y z 
3 1 0.364404 1.28512 -1.48088 
4 1 -0.291784 0.897916 -0.833198 
7 1 0.488283 1.42672 -0.498741 
2 1 1.14447 1.81392 -1.14642 
5 1 -0.167904 1.03952 0.148944 
6 1 0.612162 1.56833 0.483401 
1 1 1.26835 1.95553 -0.164283 
8 1 -2.1429 2.99162 4.8431 
13 1 -2.51376 3.85809 4.50889 
12 1 -3.02361 4.45563 5.12775 
9 1 -2.28187 2.72271 5.79619 
14 1 -2.65274 3.58917 5.46197 
10 1 -2.79172 3.32026 6.41505 
11 1 -3.16258 4.18672 6.08084 
ITEM: TIMESTEP
43000
ITEM: NUMBER OF ATOMS
14
ITEM: BOX BOUNDS ff ff ff
-2.5000000000000000e+01 2.6000000000000000e+01
-2.5000000000000000e+01 2.6000000000000000e+01
-2.5000000000000000e+01 2.7000000000000000e+01
ITEM: ATOMS id type x y z 
3 1 0.336526 1.36794 -1.46422 
4 1 -0.330953 0.966032 -0.83737 
7 1 0.443122 1.48657 -0.477022 
2 1 1.1106 1.88847 -1.10387 
5 1 -0.224356 1.08466 0.14983 
6 1 0.549719 1.6052 0.510178 
1 1 1.2172 2.0071 -0.116675 
8 1 -2.20884 2.96367 4.89773 
13 1 -2.41959 3.89045 4.58682 