ITEM: TIMESTEP
0
ITEM: NUMBER OF ENTRIES
1
ITEM: BOX BOUNDS ff ff ff
-25 26
-25 26
-25 27
ITEM: ENTRIES c_com_1[1] c_com_1[2] c_com_1[3] c_com_2[1] c_com_2[2] c_com_2[3] c_vel_1[1] c_vel_1[2] c_vel_1[3] c_vel_2[1] c_vel_2[2] c_vel_2[3] c_q_1[1] c_q_1[2] c_q_1[3] c_q_1[4] c_q_2[1] c_q_2[2] c_q_2[3] c_q_2[4] c_av_1[1] c_av_1[2] c_av_1[3] c_av_2[1] c_av_2[2] c_av_2[3] c_am_1[1] c_am_1[2] c_am_1[3] c_am_2[1] c_am_2[2] c_am_2[3] 
0 0 0 0 0 0 0 0 0 0 0 0 0 0 0 0 0 0 0 0 0 0 0 0 0 0 0 0 0 0 0 0 
ITEM: TIMESTEP
1
ITEM: NUMBER OF ENTRIES
1
ITEM: BOX BOUNDS ff ff ff
-25 26
-25 26
-25 27
ITEM: ENTRIES c_com_1[1] c_com_1[2] c_com_1[3] c_com_2[1] c_com_2[2] c_com_2[3] c_vel_1[1] c_vel_1[2] c_vel_1[3] c_vel_2[1] c_vel_2[2] c_vel_2[3] c_q_1[1] c_q_1[2] c_q_1[3] c_q_1[4] c_q_2[1] c_q_2[2] c_q_2[3] c_q_2[4] c_av_1[1] c_av_1[2] c_av_1[3] c_av_2[1] c_av_2[2] c_av_2[3] c_am_1[1] c_am_1[2] c_am_1[3] c_am_2[1] c_am_2[2] c_am_2[3] 
0 0 0 0 0 0 0 0 0 0 0 0 0 0 0 0 0 0 0 0 0 0 0 0 0 0 0 0 0 0 0 0 
ITEM: TIMESTEP
1000
ITEM: NUMBER OF ENTRIES
1
ITEM: BOX BOUNDS ff ff ff
-25 26
-25 26
-25 27
ITEM: ENTRIES c_com_1[1] c_com_1[2] c_com_1[3] c_com_2[1] c_com_2[2] c_com_2[3] c_vel_1[1] c_vel_1[2] c_vel_1[3] c_vel_2[1] c_vel_2[2] c_vel_2[3] c_q_1[1] c_q_1[2] c_q_1[3] c_q_1[4] c_q_2[1] c_q_2[2] c_q_2[3] c_q_2[4] c_av_1[1] c_av_1[2] c_av_1[3] c_av_2[1] c_av_2[2] c_av_2[3] c_am_1[1] c_am_1[2] c_am_1[3] c_am_2[1] c_am_2[2] c_am_2[3] 
-0.00977213 0.0119654 0.00318257 1.00545 1.00362 1.99198 -0.0107752 0.0458923 0.00756114 0.00440698 0.0319452 0.0246696 -0.00312072 0.0120265 -0.00301576 0.999918 -0.00105273 -0.00608945 0.00130797 0.99998 -0.00552122 0.0170647 -0.0239525 -0.0215073 -0.0290482 -0.000889508 -0.0182947 0.0507505 -0.143753 -0.0644968 -0.0871491 -0.00473281 
ITEM: TIMESTEP
2000
ITEM: NUMBER OF ENTRIES
1
ITEM: BOX BOUNDS ff ff ff
-25 26
-25 26
-25 27
ITEM: ENTRIES c_com_1[1] c_com_1[2] c_com_1[3] c_com_2[1] c_com_2[2] c_com_2[3] c_vel_1[1] c_vel_1[2] c_vel_1[3] c_vel_2[1] c_vel_2[2] c_vel_2[3] c_q_1[1] c_q_1[2] c_q_1[3] c_q_1[4] c_q_2[1] c_q_2[2] c_q_2[3] c_q_2[4] c_av_1[1] c_av_1[2] c_av_1[3] c_av_2[1] c_av_2[2] c_av_2[3] c_am_1[1] c_am_1[2] c_am_1[3] c_am_2[1] c_am_2[2] c_am_2[3] 
-0.00859457 0.0303107 0.0303914 1.00709 1.01843 1.99679 0.00220229 0.0352088 0.0677257 -0.0246184 0.0547617 -0.000152036 0.000961108 0.0213882 -0.00742763 0.999743 -0.0116224 -0.0184336 -0.00286691 0.999758 0.0200545 0.0408472 -0.00538808 -0.173707 -0.0441775 -0.0367169 0.0595713 0.122572 -0.0300033 -0.517663 -0.134726 -0.204029 
ITEM: TIMESTEP
3000
ITEM: NUMBER OF ENTRIES
1
ITEM: BOX BOUNDS ff ff ff
-25 26
-25 26
-25 27
ITEM: ENTRIES c_com_1[1] c_com_1[2] c_com_1[3] c_com_2[1] c_com_2[2] c_com_2[3] c_vel_1[1] c_vel_1[2] c_vel_1[3] c_vel_2[1] c_vel_2[2] c_vel_2[3] c_q_1[1] c_q_1[2] c_q_1[3] c_q_1[4] c_q_2[1] c_q_2[2] c_q_2[3] c_q_2[4] c_av_1[1] c_av_1[2] c_av_1[3] c_av_2[1] c_av_2[2] c_av_2[3] c_am_1[1] c_am_1[2] c_am_1[3] c_am_2[1] c_am_2[2] c_am_2[3] 
0.00425073 0.052325 0.0527619 1.0033 1.04798 2.00479 0.0232494 0.033098 0.0457188 0.00605623 0.0433774 0.0144871 0.011892 0.0363956 -0.0024657 0.999264 -0.0384983 -0.030297 -0.0158854 0.998673 0.0487281 0.0523409 0.0254678 -0.064983 -0.0365026 -0.0515617 0.15222 0.155034 0.159204 -0.186001 -0.121257 -0.304871 
ITEM: TIMESTEP
4000
ITEM: NUMBER OF ENTRIES
1
ITEM: BOX BOUNDS ff ff ff
-25 26
-25 26
-25 27
ITEM: ENTRIES c_com_1[1] c_com_1[2] c_com_1[3] c_com_2[1] c_com_2[2] c_com_2[3] c_vel_1[1] c_vel_1[2] c_vel_1[3] c_vel_2[1] c_vel_2[2] c_vel_2[3] c_q_1[1] c_q_1[2] c_q_1[3] c_q_1[4] c_q_2[1] c_q_2[2] c_q_2[3] c_q_2[4] c_av_1[1] c_av_1[2] c_av_1[3] c_av_2[1] c_av_2[2] c_av_2[3] c_am_1[1] c_am_1[2] c_am_1[3] c_am_2[1] c_am_2[2] c_am_2[3] 
0.0228287 0.0716274 0.0600084 1.00474 1.07922 2.00561 0.0717074 0.0495181 0.00130575 0.00699208 0.0686571 0.00506304 0.0164517 0.0413129 0.00603618 0.998993 -0.0577778 -0.0144727 -0.0363973 0.997561 -0.0211351 0.0236026 0.00629284 -0.043603 0.0816408 -0.113209 -0.0624732 0.0704432 0.0300994 -0.123273 0.209385 -0.642956 
ITEM: TIMESTEP
5000
ITEM: NUMBER OF ENTRIES
1
ITEM: BOX BOUNDS ff ff ff
-25 26
-25 26
-25 27
ITEM: ENTRIES c_com_1[1] c_com_1[2] c_com_1[3] c_com_2[1] c_com_2[2] c_com_2[3] c_vel_1[1] c_vel_1[2] c_vel_1[3] c_vel_2[1] c_vel_2[2] c_vel_2[3] c_q_1[1] c_q_1[2] c_q_1[3] c_q_1[4] c_q_2[1] c_q_2[2] c_q_2[3] c_q_2[4] c_av_1[1] c_av_1[2] c_av_1[3] c_av_2[1] c_av_2[2] c_av_2[3] c_am_1[1] c_am_1[2] c_am_1[3] c_am_2[1] c_am_2[2] c_am_2[3] 
0.0531209 0.126007 0.0527985 0.995373 1.12051 2.02618 0.0264329 0.110468 -0.033096 -0.0110958 0.0739345 0.0565563 0.0219354 0.0276307 0.0138103 0.999282 -0.0683086 0.00144275 -0.05921 0.995905 0.0241846 -0.11296 0.0455783 -0.0340773 0.0702074 -0.0784634 0.0812095 -0.345558 0.291391 -0.104487 0.182671 -0.439163 
ITEM: TIMESTEP
6000
ITEM: NUMBER OF ENTRIES
1
ITEM: BOX BOUNDS ff ff ff
-25 26
-25 26
-25 27
ITEM: ENTRIES c_com_1[1] c_com_1[2] c_com_1[3] c_com_2[1] c_com_2[2] c_com_2[3] c_vel_1[1] c_vel_1[2] c_vel_1[3] c_vel_2[1] c_vel_2[2] c_vel_2[3] c_q_1[1] c_q_1[2] c_q_1[3] c_q_1[4] c_q_2[1] c_q_2[2] c_q_2[3] c_q_2[4] c_av_1[1] c_av_1[2] c_av_1[3] c_av_2[1] c_av_2[2] c_av_2[3] c_am_1[1] c_am_1[2] c_am_1[3] c_am_2[1] c_am_2[2] c_am_2[3] 
0.07376 0.193796 0.0463165 1.00028 1.14779 2.0661 0.0675997 0.156042 0.0265377 0.0322278 0.0571134 0.123331 0.0396678 0.00624316 0.0270495 0.998827 -0.0805751 0.0249428 -0.0740511 0.993681 0.0950732 -0.0605796 0.0520393 -0.0178422 0.0833994 -0.0599414 0.287765 -0.195478 0.32968 -0.0622241 0.228075 -0.319229 
ITEM: TIMESTEP
7000
ITEM: NUMBER OF ENTRIES
1
ITEM: BOX BOUNDS ff ff ff
-25 26
-25 26
-25 27
ITEM: ENTRIES c_com_1[1] c_com_1[2] c_com_1[3] c_com_2[1] c_com_2[2] c_com_2[3] c_vel_1[1] c_vel_1[2] c_vel_1[3] c_vel_2[1] c_vel_2[2] c_vel_2[3] c_q_1[1] c_q_1[2] c_q_1[3] c_q_1[4] c_q_2[1] c_q_2[2] c_q_2[3] c_q_2[4] c_av_1[1] c_av_1[2] c_av_1[3] c_av_2[1] c_av_2[2] c_av_2[3] c_am_1[1] c_am_1[2] c_am_1[3] c_am_2[1] c_am_2[2] c_am_2[3] 
0.101444 0.263059 0.06655 1.00051 1.17015 2.13665 0.0471101 0.115992 0.0709465 -0.0161395 0.0311806 0.112067 0.0561718 -0.0183448 0.0362323 0.997595 -0.0843384 0.0413125 -0.0912625 0.991389 0.0337937 -0.109712 0.0129689 0.0180882 0.0390505 -0.091258 0.0990174 -0.337376 0.111061 0.0304283 0.0780359 -0.51441 
ITEM: TIMESTEP
8000
ITEM: NUMBER OF ENTRIES
1
ITEM: BOX BOUNDS ff ff ff
-25 26
-25 26
-25 27
ITEM: ENTRIES c_com_1[1] c_com_1[2] c_com_1[3] c_com_2[1] c_com_2[2] c_com_2[3] c_vel_1[1] c_vel_1[2] c_vel_1[3] c_vel_2[1] c_vel_2[2] c_vel_2[3] c_q_1[1] c_q_1[2] c_q_1[3] c_q_1[4] c_q_2[1] c_q_2[2] c_q_2[3] c_q_2[4] c_av_1[1] c_av_1[2] c_av_1[3] c_av_2[1] c_av_2[2] c_av_2[3] c_am_1[1] c_am_1[2] c_am_1[3] c_am_2[1] c_am_2[2] c_am_2[3] 
0.136576 0.305135 0.115961 0.984792 1.20756 2.18742 0.103017 0.0835803 0.108715 -0.0388397 0.0855555 0.107003 0.0501622 -0.0400939 0.0326663 0.997401 -0.0898595 0.0672755 -0.101049 0.988528 -0.0637736 -0.0617989 -0.0280981 -0.0761981 0.172173 -0.0537427 -0.187494 -0.180274 -0.13377 -0.244766 0.498967 -0.265512 
ITEM: TIMESTEP
9000
ITEM: NUMBER OF ENTRIES
1
ITEM: BOX BOUNDS ff ff ff
-25 26
-25 26
-25 27
ITEM: ENTRIES c_com_1[1] c_com_1[2] c_com_1[3] c_com_2[1] c_com_2[2] c_com_2[3] c_vel_1[1] c_vel_1[2] c_vel_1[3] c_vel_2[1] c_vel_2[2] c_vel_2[3] c_q_1[1] c_q_1[2] c_q_1[3] c_q_1[4] c_q_2[1] c_q_2[2] c_q_2[3] c_q_2[4] c_av_1[1] c_av_1[2] c_av_1[3] c_av_2[1] c_av_2[2] c_av_2[3] c_am_1[1] c_am_1[2] c_am_1[3] c_am_2[1] c_am_2[2] c_am_2[3] 
0.165556 0.343104 0.176721 0.973116 1.24969 2.24799 0.0559986 0.0888969 0.140929 -0.0331627 0.0780303 0.139813 0.0368639 -0.0483043 0.023658 0.997872 -0.10799 0.113327 -0.113632 0.981113 -0.0137195 0.0161855 -0.0704859 -0.118613 0.215517 -0.0662163 -0.0213102 0.0644622 -0.419592 -0.394463 0.617434 -0.347406 
ITEM: TIMESTEP
10000
ITEM: NUMBER OF ENTRIES
1
ITEM: BOX BOUNDS ff ff ff
-25 26
-25 26
-25 27
ITEM: ENTRIES c_com_1[1] c_com_1[2] c_com_1[3] c_com_2[1] c_com_2[2] c_com_2[3] c_vel_1[1] c_vel_1[2] c_vel_1[3] c_vel_2[1] c_vel_2[2] c_vel_2[3] c_q_1[1] c_q_1[2] c_q_1[3] c_q_1[4] c_q_2[1] c_q_2[2] c_q_2[3] c_q_2[4] c_av_1[1] c_av_1[2] c_av_1[3] c_av_2[1] c_av_2[2] c_av_2[3] c_am_1[1] c_am_1[2] c_am_1[3] c_am_2[1] c_am_2[2] c_am_2[3] 
0.201724 0.383292 0.216651 0.948997 1.28604 2.32329 0.0864554 0.109119 0.0261876 -0.0346403 0.0600758 0.161499 0.0462165 -0.0428979 0.0073192 0.997983 -0.1471 0.165277 -0.129477 0.966582 0.089382 -0.019578 -0.058139 -0.155376 0.204676 -0.042403 0.284316 -0.0410549 -0.363256 -0.513727 0.581874 -0.247286 
ITEM: TIMESTEP
11000
ITEM: NUMBER OF ENTRIES
1
ITEM: BOX BOUNDS ff ff ff
-25 26
-25 26
-25 27
ITEM: ENTRIES c_com_1[1] c_com_1[2] c_com_1[3] c_com_2[1] c_com_2[2] c_com_2[3] c_vel_1[1] c_vel_1[2] c_vel_1[3] c_vel_2[1] c_vel_2[2] c_vel_2[3] c_q_1[1] c_q_1[2] c_q_1[3] c_q_1[4] c_q_2[1] c_q_2[2] c_q_2[3] c_q_2[4] c_av_1[1] c_av_1[2] c_av_1[3] c_av_2[1] c_av_2[2] c_av_2[3] c_am_1[1] c_am_1[2] c_am_1[3] c_am_2[1] c_am_2[2] c_am_2[3] 
0.259632 0.432225 0.234602 0.918259 1.31946 2.40489 0.133944 0.107931 0.0188133 -0.083892 0.0683956 0.181787 0.0570192 -0.0477405 -0.0119119 0.99716 -0.201645 0.211888 -0.124919 0.948071 0.0327442 -0.055868 -0.0625072 -0.24813 0.268735 0.058367 0.115235 -0.147783 -0.36164 -0.710869 0.830628 0.236552 
ITEM: TIMESTEP
12000
ITEM: NUMBER OF ENTRIES
1
ITEM: BOX BOUNDS ff ff ff
-25 26
-25 26
-25 27
ITEM: ENTRIES c_com_1[1] c_com_1[2] c_com_1[3] c_com_2[1] c_com_2[2] c_com_2[3] c_vel_1[1] c_vel_1[2] c_vel_1[3] c_vel_2[1] c_vel_2[2] c_vel_2[3] c_q_1[1] c_q_1[2] c_q_1[3] c_q_1[4] c_q_2[1] c_q_2[2] c_q_2[3] c_q_2[4] c_av_1[1] c_av_1[2] c_av_1[3] c_av_2[1] c_av_2[2] c_av_2[3] c_am_1[1] c_am_1[2] c_am_1[3] c_am_2[1] c_am_2[2] c_am_2[3] 
0.313568 0.491361 0.228511 0.859695 1.35621 2.51347 0.0848665 0.129058 -0.0184486 -0.134028 0.090044 0.199574 0.0711754 -0.0452896 -0.0243473 0.996138 -0.270771 0.263352 -0.104209 0.920038 0.1186 0.0686839 -0.0617076 -0.225625 0.276473 0.0424213 0.378716 0.240195 -0.426229 -0.626846 0.870416 0.193349 
ITEM: TIMESTEP
13000
ITEM: NUMBER OF ENTRIES
1
ITEM: BOX BOUNDS ff ff ff
-25 26
-25 26
-25 27
ITEM: ENTRIES c_com_1[1] c_com_1[2] c_com_1[3] c_com_2[1] c_com_2[2] c_com_2[3] c_vel_1[1] c_vel_1[2] c_vel_1[3] c_vel_2[1] c_vel_2[2] c_vel_2[3] c_q_1[1] c_q_1[2] c_q_1[3] c_q_1[4] c_q_2[1] c_q_2[2] c_q_2[3] c_q_2[4] c_av_1[1] c_av_1[2] c_av_1[3] c_av_2[1] c_av_2[2] c_av_2[3] c_am_1[1] c_am_1[2] c_am_1[3] c_am_2[1] c_am_2[2] c_am_2[3] 
0.347448 0.550215 0.223459 0.796214 1.39489 2.63675 0.0534887 0.0871952 -0.0828057 -0.100856 0.0697832 0.351978 0.107009 -0.0284415 -0.0416359 0.992979 -0.314143 0.318499 -0.0957778 0.889212 0.0179251 0.157317 -0.0704791 0.0794496 0.134188 -0.0792287 0.0739789 0.536876 -0.512811 0.368146 0.505654 -0.113453 
ITEM: TIMESTEP
14000
ITEM: NUMBER OF ENTRIES
1
ITEM: BOX BOUNDS ff ff ff
-25 26
-25 26
-25 27
ITEM: ENTRIES c_com_1[1] c_com_1[2] c_com_1[3] c_com_2[1] c_com_2[2] c_com_2[3] c_vel_1[1] c_vel_1[2] c_vel_1[3] c_vel_2[1] c_vel_2[2] c_vel_2[3] c_q_1[1] c_q_1[2] c_q_1[3] c_q_1[4] c_q_2[1] c_q_2[2] c_q_2[3] c_q_2[4] c_av_1[1] c_av_1[2] c_av_1[3] c_av_2[1] c_av_2[2] c_av_2[3] c_am_1[1] c_am_1[2] c_am_1[3] c_am_2[1] c_am_2[2] c_am_2[3] 
0.367487 0.56913 0.174795 0.74949 1.44886 2.81256 0.0620913 0.045831 -0.0914381 -0.0670122 0.153464 0.335785 0.110556 0.00820632 -0.0637865 0.991787 -0.295461 0.351257 -0.0965289 0.883178 0.0605525 0.162153 -0.0529476 0.0586402 0.100589 -0.106753 0.181089 0.544131 -0.414141 0.22395 0.333959 -0.279236 
ITEM: TIMESTEP
15000
ITEM: NUMBER OF ENTRIES
1
ITEM: BOX BOUNDS ff ff ff
-25 26
-25 26
-25 27
ITEM: ENTRIES c_com_1[1] c_com_1[2] c_com_1[3] c_com_2[1] c_com_2[2] c_com_2[3] c_vel_1[1] c_vel_1[2] c_vel_1[3] c_vel_2[1] c_vel_2[2] c_vel_2[3] c_q_1[1] c_q_1[2] c_q_1[3] c_q_1[4] c_q_2[1] c_q_2[2] c_q_2[3] c_q_2[4] c_av_1[1] c_av_1[2] c_av_1[3] c_av_2[1] c_av_2[2] c_av_2[3] c_am_1[1] c_am_1[2] c_am_1[3] c_am_2[1] c_am_2[2] c_am_2[3] 
0.396877 0.609471 0.138897 0.724633 1.52692 2.97003 0.0614807 0.127792 -0.0676685 -0.0277118 0.189477 0.293051 0.111606 0.0423482 -0.0785554 0.989737 -0.292801 0.378928 -0.106726 0.871373 -0.0289326 0.118954 -0.033706 -0.0741294 0.0775869 -0.0486025 -0.0990755 0.399009 -0.281043 -0.323408 0.172754 -0.221462 
ITEM: TIMESTEP
16000
ITEM: NUMBER OF ENTRIES
1
ITEM: BOX BOUNDS ff ff ff
-25 26
-25 26
-25 27
ITEM: ENTRIES c_com_1[1] c_com_1[2] c_com_1[3] c_com_2[1] c_com_2[2] c_com_2[3] c_vel_1[1] c_vel_1[2] c_vel_1[3] c_vel_2[1] c_vel_2[2] c_vel_2[3] c_q_1[1] c_q_1[2] c_q_1[3] c_q_1[4] c_q_2[1] c_q_2[2] c_q_2[3] c_q_2[4] c_av_1[1] c_av_1[2] c_av_1[3] c_av_2[1] c_av_2[2] c_av_2[3] c_am_1[1] c_am_1[2] c_am_1[3] c_am_2[1] c_am_2[2] c_am_2[3] 
0.418402 0.665841 0.108826 0.709254 1.61794 3.12887 0.036032 0.097408 -0.0550871 -0.0198341 0.189219 0.296826 0.100693 0.0769132 -0.0780019 0.988868 -0.293583 0.40125 -0.122067 0.859015 -0.0363671 0.197404 0.0531281 -0.0133726 0.0741548 -0.161805 -0.107145 0.589183 0.173266 -0.181326 0.147052 -0.579232 
ITEM: TIMESTEP
17000
ITEM: NUMBER OF ENTRIES
1
ITEM: BOX BOUNDS ff ff ff
-25 26
-25 26
-25 27
ITEM: ENTRIES c_com_1[1] c_com_1[2] c_com_1[3] c_com_2[1] c_com_2[2] c_com_2[3] c_vel_1[1] c_vel_1[2] c_vel_1[3] c_vel_2[1] c_vel_2[2] c_vel_2[3] c_q_1[1] c_q_1[2] c_q_1[3] c_q_1[4] c_q_2[1] c_q_2[2] c_q_2[3] c_q_2[4] c_av_1[1] c_av_1[2] c_av_1[3] c_av_2[1] c_av_2[2] c_av_2[3] c_am_1[1] c_am_1[2] c_am_1[3] c_am_2[1] c_am_2[2] c_am_2[3] 
0.445057 0.734153 0.077798 0.691241 1.71836 3.27445 0.0689913 0.146729 -0.0676299 -0.0778111 0.194554 0.274757 0.0753817 0.112712 -0.0678311 0.988439 -0.280876 0.432833 -0.150408 0.843292 -0.0857649 0.073762 0.0798628 -0.00106723 0.0679994 -0.157207 -0.227592 0.198329 0.37417 -0.127843 0.151431 -0.543166 
ITEM: TIMESTEP
18000
ITEM: NUMBER OF ENTRIES
1
ITEM: BOX BOUNDS ff ff ff
-25 26
-25 26
-25 27
ITEM: ENTRIES c_com_1[1] c_com_1[2] c_com_1[3] c_com_2[1] c_com_2[2] c_com_2[3] c_vel_1[1] c_vel_1[2] c_vel_1[3] c_vel_2[1] c_vel_2[2] c_vel_2[3] c_q_1[1] c_q_1[2] c_q_1[3] c_q_1[4] c_q_2[1] c_q_2[2] c_q_2[3] c_q_2[4] c_av_1[1] c_av_1[2] c_av_1[3] c_av_2[1] c_av_2[2] c_av_2[3] c_am_1[1] c_am_1[2] c_am_1[3] c_am_2[1] c_am_2[2] c_am_2[3] 
0.482878 0.782034 0.0388961 0.647791 1.82565 3.40689 0.0398814 0.076998 -0.0930369 -0.110502 0.232936 0.277586 0.0504606 0.119181 -0.0615818 0.989675 -0.255319 0.449596 -0.182413 0.836302 -0.114955 -0.0167435 -0.00459457 0.0276522 0.0561898 -0.20946 -0.364797 -0.0402893 -0.0976549 -0.0674525 0.12176 -0.711198 
ITEM: TIMESTEP
19000
ITEM: NUMBER OF ENTRIES
1
ITEM: BOX BOUNDS ff ff ff
-25 26
-25 26
-25 27
ITEM: ENTRIES c_com_1[1] c_com_1[2] c_com_1[3] c_com_2[1] c_com_2[2] c_com_2[3] c_vel_1[1] c_vel_1[2] c_vel_1[3] c_vel_2[1] c_vel_2[2] c_vel_2[3] c_q_1[1] c_q_1[2] c_q_1[3] c_q_1[4] c_q_2[1] c_q_2[2] c_q_2[3] c_q_2[4] c_av_1[1] c_av_1[2] c_av_1[3] c_av_2[1] c_av_2[2] c_av_2[3] c_am_1[1] c_am_1[2] c_am_1[3] c_am_2[1] c_am_2[2] c_am_2[3] 
0.518314 0.819727 -0.00519786 0.571338 1.91795 3.54616 0.103212 0.0844501 -0.0509597 -0.194262 0.158883 0.297397 0.0148677 0.116867 -0.0614609 0.991133 -0.227314 0.470167 -0.214591 0.825362 -0.168318 -0.0319834 0.0565567 0.0455626 0.0671048 -0.199165 -0.492746 -0.0982784 0.221307 0.034251 0.180978 -0.650788 
ITEM: TIMESTEP
20000
ITEM: NUMBER OF ENTRIES
1
ITEM: BOX BOUNDS ff ff ff
-25 26
-25 26
-25 27
ITEM: ENTRIES c_com_1[1] c_com_1[2] c_com_1[3] c_com_2[1] c_com_2[2] c_com_2[3] c_vel_1[1] c_vel_1[2] c_vel_1[3] c_vel_2[1] c_vel_2[2] c_vel_2[3] c_q_1[1] c_q_1[2] c_q_1[3] c_q_1[4] c_q_2[1] c_q_2[2] c_q_2[3] c_q_2[4] c_av_1[1] c_av_1[2] c_av_1[3] c_av_2[1] c_av_2[2] c_av_2[3] c_am_1[1] c_am_1[2] c_am_1[3] c_am_2[1] c_am_2[2] c_am_2[3] 
0.575309 0.869208 -0.0290214 0.481769 2.00673 3.69116 0.15092 0.10256 -0.0747507 -0.180023 0.190862 0.289302 -0.0230314 0.0982545 -0.0506065 0.993607 -0.203886 0.495266 -0.240223 0.809589 -0.137691 -0.090264 0.08562 0.0108151 0.094237 -0.14645 -0.381398 -0.265049 0.413906 -0.0863663 0.270541 -0.495632 
ITEM: TIMESTEP
21000
ITEM: NUMBER OF ENTRIES
1
ITEM: BOX BOUNDS ff ff ff
-25 26
-25 26
-25 27
ITEM: ENTRIES c_com_1[1] c_com_1[2] c_com_1[3] c_com_2[1] c_com_2[2] c_com_2[3] c_vel_1[1] c_vel_1[2] c_vel_1[3] c_vel_2[1] c_vel_2[2] c_vel_2[3] c_q_1[1] c_q_1[2] c_q_1[3] c_q_1[4] c_q_2[1] c_q_2[2] c_q_2[3] c_q_2[4] c_av_1[1] c_av_1[2] c_av_1[3] c_av_2[1] c_av_2[2] c_av_2[3] c_am_1[1] c_am_1[2] c_am_1[3] c_am_2[1] c_am_2[2] c_am_2[3] 
0.6385 0.920042 -0.0842976 0.404144 2.10931 3.83729 0.0803123 0.0731325 -0.131785 -0.162619 0.233362 0.281108 -0.058634 0.0721604 -0.0417159 0.994794 -0.192902 0.513749 -0.268994 0.791513 -0.137578 -0.112421 0.0572313 -0.0167873 -0.00950931 -0.153128 -0.402321 -0.329503 0.240618 -0.261018 -0.0351842 -0.550739 
ITEM: TIMESTEP
22000
ITEM: NUMBER OF ENTRIES
1
ITEM: BOX BOUNDS ff ff ff
-25 26
-25 26
-25 27
ITEM: ENTRIES c_com_1[1] c_com_1[2] c_com_1[3] c_com_2[1] c_com_2[2] c_com_2[3] c_vel_1[1] c_vel_1[2] c_vel_1[3] c_vel_2[1] c_vel_2[2] c_vel_2[3] c_q_1[1] c_q_1[2] c_q_1[3] c_q_1[4] c_q_2[1] c_q_2[2] c_q_2[3] c_q_2[4] c_av_1[1] c_av_1[2] c_av_1[3] c_av_2[1] c_av_2[2] c_av_2[3] c_am_1[1] c_am_1[2] c_am_1[3] c_am_2[1] c_am_2[2] c_am_2[3] 
0.666792 0.951698 -0.137039 0.311535 2.2351 3.96666 0.0479516 0.0542606 -0.0657989 -0.212042 0.242466 0.22944 -0.0841922 0.0405871 -0.0357462 0.994981 -0.176263 0.525796 -0.307162 0.773383 -0.0952517 -0.0685085 0.0369116 -0.0245341 0.0361516 -0.219476 -0.281402 -0.197267 0.160022 -0.374722 0.124914 -0.784207 
ITEM: TIMESTEP
23000
ITEM: NUMBER OF ENTRIES
1
ITEM: BOX BOUNDS ff ff ff
-25 26
-25 26
-25 27
ITEM: ENTRIES c_com_1[1] c_com_1[2] c_com_1[3] c_com_2[1] c_com_2[2] c_com_2[3] c_vel_1[1] c_vel_1[2] c_vel_1[3] c_vel_2[1] c_vel_2[2] c_vel_2[3] c_q_1[1] c_q_1[2] c_q_1[3] c_q_1[4] c_q_2[1] c_q_2[2] c_q_2[3] c_q_2[4] c_av_1[1] c_av_1[2] c_av_1[3] c_av_2[1] c_av_2[2] c_av_2[3] c_am_1[1] c_am_1[2] c_am_1[3] c_am_2[1] c_am_2[2] c_am_2[3] 
0.697391 0.980453 -0.169739 0.183315 2.35806 4.08227 0.0818113 0.054541 -0.045978 -0.275262 0.242578 0.225534 -0.119563 0.0140281 -0.0225926 0.99247 -0.1609 0.531925 -0.349022 0.754553 -0.183303 -0.103763 0.0810236 -0.0599611 0.0190467 -0.193947 -0.545118 -0.277189 0.382958 -0.540778 0.107818 -0.732633 
ITEM: TIMESTEP
24000
ITEM: NUMBER OF ENTRIES
1
ITEM: BOX BOUNDS ff ff ff
-25 26
-25 26
-25 27
ITEM: ENTRIES c_com_1[1] c_com_1[2] c_com_1[3] c_com_2[1] c_com_2[2] c_com_2[3] c_vel_1[1] c_vel_1[2] c_vel_1[3] c_vel_2[1] c_vel_2[2] c_vel_2[3] c_q_1[1] c_q_1[2] c_q_1[3] c_q_1[4] c_q_2[1] c_q_2[2] c_q_2[3] c_q_2[4] c_av_1[1] c_av_1[2] c_av_1[3] c_av_2[1] c_av_2[2] c_av_2[3] c_am_1[1] c_am_1[2] c_am_1[3] c_am_2[1] c_am_2[2] c_am_2[3] 
0.74431 1.01546 -0.201773 0.0303022 2.4813 4.19809 0.103868 0.0757044 -0.0657966 -0.342457 0.26069 0.266149 -0.173108 -0.0222268 -0.0104688 0.984596 -0.140346 0.53065 -0.400944 0.733456 -0.213471 -0.165689 0.0647194 -0.0689182 -0.0801127 -0.262183 -0.641953 -0.483972 0.230187 -0.602355 -0.142811 -0.963013 
ITEM: TIMESTEP
25000
ITEM: NUMBER OF ENTRIES
1
ITEM: BOX BOUNDS ff ff ff
-25 26
-25 26
-25 27
ITEM: ENTRIES c_com_1[1] c_com_1[2] c_com_1[3] c_com_2[1] c_com_2[2] c_com_2[3] c_vel_1[1] c_vel_1[2] c_vel_1[3] c_vel_2[1] c_vel_2[2] c_vel_2[3] c_q_1[1] c_q_1[2] c_q_1[3] c_q_1[4] c_q_2[1] c_q_2[2] c_q_2[3] c_q_2[4] c_av_1[1] c_av_1[2] c_av_1[3] c_av_2[1] c_av_2[2] c_av_2[3] c_am_1[1] c_am_1[2] c_am_1[3] c_am_2[1] c_am_2[2] c_am_2[3] 
0.798444 1.04283 -0.224472 -0.145826 2.60181 4.33713 0.130822 0.0535345 -0.0647064 -0.395202 0.245382 0.281916 -0.220742 -0.0659141 5.97067e-05 0.973102 -0.109559 0.507381 -0.458305 0.721469 -0.231141 -0.190437 0.0367204 -0.0821037 -0.159525 -0.237429 -0.685981 -0.596225 0.0583221 -0.568173 -0.359894 -0.890558 
ITEM: TIMESTEP
26000
ITEM: NUMBER OF ENTRIES
1
ITEM: BOX BOUNDS ff ff ff
-25 26
-25 26
-25 27
ITEM: ENTRIES c_com_1[1] c_com_1[2] c_com_1[3] c_com_2[1] c_com_2[2] c_com_2[3] c_vel_1[1] c_vel_1[2] c_vel_1[3] c_vel_2[1] c_vel_2[2] c_vel_2[3] c_q_1[1] c_q_1[2] c_q_1[3] c_q_1[4] c_q_2[1] c_q_2[2] c_q_2[3] c_q_2[4] c_av_1[1] c_av_1[2] c_av_1[3] c_av_2[1] c_av_2[2] c_av_2[3] c_am_1[1] c_am_1[2] c_am_1[3] c_am_2[1] c_am_2[2] c_am_2[3] 
0.861702 1.06926 -0.256984 -0.342523 2.71312 4.4648 0.0849985 0.0388599 -0.0419701 -0.388355 0.231289 0.25511 -0.269436 -0.116341 0.00903462 0.955922 -0.0713518 0.464486 -0.515377 0.716622 -0.211168 -0.178153 0.0783507 -0.0920064 -0.242999 -0.27144 -0.648135 -0.501438 0.288332 -0.560071 -0.584331 -1.02885 
ITEM: TIMESTEP
27000
ITEM: NUMBER OF ENTRIES
1
ITEM: BOX BOUNDS ff ff ff
-25 26
-25 26
-25 27
ITEM: ENTRIES c_com_1[1] c_com_1[2] c_com_1[3] c_com_2[1] c_com_2[2] c_com_2[3] c_vel_1[1] c_vel_1[2] c_vel_1[3] c_vel_2[1] c_vel_2[2] c_vel_2[3] c_q_1[1] c_q_1[2] c_q_1[3] c_q_1[4] c_q_2[1] c_q_2[2] c_q_2[3] c_q_2[4] c_av_1[1] c_av_1[2] c_av_1[3] c_av_2[1] c_av_2[2] c_av_2[3] c_am_1[1] c_am_1[2] c_am_1[3] c_am_2[1] c_am_2[2] c_am_2[3] 
0.909597 1.08463 -0.291792 -0.548493 2.81329 4.58534 0.101543 0.0447161 -0.0620829 -0.42621 0.176616 0.204077 -0.310052 -0.165745 0.027274 0.935763 -0.0271999 0.404922 -0.572142 0.712707 -0.179498 -0.193979 0.116133 -0.149172 -0.266651 -0.145535 -0.573169 -0.521386 0.428195 -0.584612 -0.704266 -0.587739 
ITEM: TIMESTEP
28000
ITEM: NUMBER OF ENTRIES
1
ITEM: BOX BOUNDS ff ff ff
-25 26
-25 26
-25 27
ITEM: ENTRIES c_com_1[1] c_com_1[2] c_com_1[3] c_com_2[1] c_com_2[2] c_com_2[3] c_vel_1[1] c_vel_1[2] c_vel_1[3] c_vel_2[1] c_vel_2[2] c_vel_2[3] c_q_1[1] c_q_1[2] c_q_1[3] c_q_1[4] c_q_2[1] c_q_2[2] c_q_2[3] c_q_2[4] c_av_1[1] c_av_1[2] c_av_1[3] c_av_2[1] c_av_2[2] c_av_2[3] c_am_1[1] c_am_1[2] c_am_1[3] c_am_2[1] c_am_2[2] c_am_2[3] 
0.950494 1.10762 -0.317764 -0.738582 2.88626 4.67412 0.0489599 0.0261942 -0.0699276 -0.366839 0.0896638 0.174931 -0.357517 -0.222298 0.0499057 0.90569 0.0145347 0.341901 -0.616946 0.708711 -0.25059 -0.224382 0.132194 -0.0723185 -0.26371 -0.205076 -0.823902 -0.570233 0.502807 -0.320714 -0.692754 -0.785487 
ITEM: TIMESTEP
29000
ITEM: NUMBER OF ENTRIES
1
ITEM: BOX BOUNDS ff ff ff
-25 26
-25 26
-25 27
ITEM: ENTRIES c_com_1[1] c_com_1[2] c_com_1[3] c_com_2[1] c_com_2[2] c_com_2[3] c_vel_1[1] c_vel_1[2] c_vel_1[3] c_vel_2[1] c_vel_2[2] c_vel_2[3] c_q_1[1] c_q_1[2] c_q_1[3] c_q_1[4] c_q_2[1] c_q_2[2] c_q_2[3] c_q_2[4] c_av_1[1] c_av_1[2] c_av_1[3] c_av_2[1] c_av_2[2] c_av_2[3] c_am_1[1] c_am_1[2] c_am_1[3] c_am_2[1] c_am_2[2] c_am_2[3] 
0.977715 1.106 -0.355968 -0.937418 2.94415 4.77931 0.0601493 -0.0286557 -0.0758698 -0.366354 0.155094 0.238533 -0.41185 -0.277677 0.06713 0.865314 0.067706 0.276246 -0.663354 0.692146 -0.226005 -0.224959 0.153851 -0.0500526 -0.304899 -0.289326 -0.753704 -0.579467 0.533104 -0.252712 -0.75338 -1.16179 
ITEM: TIMESTEP
30000
ITEM: NUMBER OF ENTRIES
1
ITEM: BOX BOUNDS ff ff ff
-25 26
-25 26
-25 27
ITEM: ENTRIES c_com_1[1] c_com_1[2] c_com_1[3] c_com_2[1] c_com_2[2] c_com_2[3] c_vel_1[1] c_vel_1[2] c_vel_1[3] c_vel_2[1] c_vel_2[2] c_vel_2[3] c_q_1[1] c_q_1[2] c_q_1[3] c_q_1[4] c_q_2[1] c_q_2[2] c_q_2[3] c_q_2[4] c_av_1[1] c_av_1[2] c_av_1[3] c_av_2[1] c_av_2[2] c_av_2[3] c_am_1[1] c_am_1[2] c_am_1[3] c_am_2[1] c_am_2[2] c_am_2[3] 
1.00762 1.10167 -0.391495 -1.1119 3.01345 4.89052 0.100526 0.0312954 -0.0516777 -0.301894 0.149886 0.219124 -0.45516 -0.327019 0.0898169 0.823299 0.137108 0.213754 -0.709319 0.657554 -0.216673 -0.128862 0.0457815 0.0267815 -0.269533 -0.261882 -0.766126 -0.257284 0.20694 0.055545 -0.670132 -1.03507 
ITEM: TIMESTEP
31000
ITEM: NUMBER OF ENTRIES
1
ITEM: BOX BOUNDS ff ff ff
-25 26
-25 26
-25 27
ITEM: ENTRIES c_com_1[1] c_com_1[2] c_com_1[3] c_com_2[1] c_com_2[2] c_com_2[3] c_vel_1[1] c_vel_1[2] c_vel_1[3] c_vel_2[1] c_vel_2[2] c_vel_2[3] c_q_1[1] c_q_1[2] c_q_1[3] c_q_1[4] c_q_2[1] c_q_2[2] c_q_2[3] c_q_2[4] c_av_1[1] c_av_1[2] c_av_1[3] c_av_2[1] c_av_2[2] c_av_2[3] c_am_1[1] c_am_1[2] c_am_1[3] c_am_2[1] c_am_2[2] c_am_2[3] 
1.03385 1.11319 -0.404236 -1.26749 3.07442 4.98223 0.0332091 -0.0148387 -0.0217502 -0.319285 0.120171 0.176718 -0.490233 -0.362806 0.117948 0.783666 0.178677 0.146408 -0.738105 0.633908 -0.176634 -0.0842619 0.131026 -0.153972 -0.232107 -0.158238 -0.728799 -0.0543256 0.467515 -0.455687 -0.661033 -0.545926 
ITEM: TIMESTEP
32000
ITEM: NUMBER OF ENTRIES
1
ITEM: BOX BOUNDS ff ff ff
-25 26
-25 26
-25 27
ITEM: ENTRIES c_com_1[1] c_com_1[2] c_com_1[3] c_com_2[1] c_com_2[2] c_com_2[3] c_vel_1[1] c_vel_1[2] c_vel_1[3] c_vel_2[1] c_vel_2[2] c_vel_2[3] c_q_1[1] c_q_1[2] c_q_1[3] c_q_1[4] c_q_2[1] c_q_2[2] c_q_2[3] c_q_2[4] c_av_1[1] c_av_1[2] c_av_1[3] c_av_2[1] c_av_2[2] c_av_2[3] c_am_1[1] c_am_1[2] c_am_1[3] c_am_2[1] c_am_2[2] c_am_2[3] 
1.05021 1.11129 -0.426306 -1.42828 3.13953 5.07331 -0.00255405 0.0360683 -0.0406058 -0.327185 0.144451 0.135438 -0.50954 -0.390371 0.152536 0.751474 0.198272 0.0775281 -0.75676 0.618055 -0.164765 -0.0757006 0.115631 -0.103846 -0.205204 -0.117332 -0.702847 -0.0453669 0.396339 -0.304726 -0.603527 -0.382318 
ITEM: TIMESTEP
33000
ITEM: NUMBER OF ENTRIES
1
ITEM: BOX BOUNDS ff ff ff
-25 26
-25 26
-25 27
ITEM: ENTRIES c_com_1[1] c_com_1[2] c_com_1[3] c_com_2[1] c_com_2[2] c_com_2[3] c_vel_1[1] c_vel_1[2] c_vel_1[3] c_vel_2[1] c_vel_2[2] c_vel_2[3] c_q_1[1] c_q_1[2] c_q_1[3] c_q_1[4] c_q_2[1] c_q_2[2] c_q_2[3] c_q_2[4] c_av_1[1] c_av_1[2] c_av_1[3] c_av_2[1] c_av_2[2] c_av_2[3] c_am_1[1] c_am_1[2] c_am_1[3] c_am_2[1] c_am_2[2] c_am_2[3] 
1.02732 1.12271 -0.436992 -1.60086 3.20399 5.14052 -0.0640204 0.00822139 -0.0127377 -0.332139 0.134539 0.16074 -0.528091 -0.409652 0.177516 0.722352 0.222205 0.025159 -0.761606 0.608233 -0.154318 -0.0811703 0.0945857 -0.0576083 -0.18849 -0.0447663 -0.650515 -0.0948965 0.309415 -0.205723 -0.598449 -0.038128 
ITEM: TIMESTEP
34000
ITEM: NUMBER OF ENTRIES
1
ITEM: BOX BOUNDS ff ff ff
-25 26
-25 26
-25 27
ITEM: ENTRIES c_com_1[1] c_com_1[2] c_com_1[3] c_com_2[1] c_com_2[2] c_com_2[3] c_vel_1[1] c_vel_1[2] c_vel_1[3] c_vel_2[1] c_vel_2[2] c_vel_2[3] c_q_1[1] c_q_1[2] c_q_1[3] c_q_1[4] c_q_2[1] c_q_2[2] c_q_2[3] c_q_2[4] c_av_1[1] c_av_1[2] c_av_1[3] c_av_2[1] c_av_2[2] c_av_2[3] c_am_1[1] c_am_1[2] c_am_1[3] c_am_2[1] c_am_2[2] c_am_2[3] 
1.00021 1.12319 -0.454201 -1.75191 3.26937 5.21382 -0.0598896 0.022634 -0.0665156 -0.287148 0.136139 0.131183 -0.553266 -0.424642 0.191778 0.690505 0.273126 -0.00682336 -0.751891 0.600013 -0.133893 -0.077437 0.0168293 0.0614917 -0.238399 -0.059374 -0.547436 -0.12259 0.0554433 0.185202 -0.714647 -0.179599 
ITEM: TIMESTEP
35000
ITEM: NUMBER OF ENTRIES
1
ITEM: BOX BOUNDS ff ff ff
-25 26
-25 26
-25 27
ITEM: ENTRIES c_com_1[1] c_com_1[2] c_com_1[3] c_com_2[1] c_com_2[2] c_com_2[3] c_vel_1[1] c_vel_1[2] c_vel_1[3] c_vel_2[1] c_vel_2[2] c_vel_2[3] c_q_1[1] c_q_1[2] c_q_1[3] c_q_1[4] c_q_2[1] c_q_2[2] c_q_2[3] c_q_2[4] c_av_1[1] c_av_1[2] c_av_1[3] c_av_2[1] c_av_2[2] c_av_2[3] c_am_1[1] c_am_1[2] c_am_1[3] c_am_2[1] c_am_2[2] c_am_2[3] 
0.952876 1.13336 -0.474541 -1.89043 3.33748 5.26268 -0.114874 0.0155955 -0.0262707 -0.26635 0.138786 0.0731019 -0.57716 -0.426681 0.187903 0.670464 0.31997 -0.0395335 -0.740325 0.589894 -0.062134 -0.0520677 -0.0762913 0.0493825 -0.257803 0.0249158 -0.23231 -0.120504 -0.230639 0.0290794 -0.846387 0.255982 
ITEM: TIMESTEP
36000
ITEM: NUMBER OF ENTRIES
1
ITEM: BOX BOUNDS ff ff ff
-25 26
-25 26
-25 27
ITEM: ENTRIES c_com_1[1] c_com_1[2] c_com_1[3] c_com_2[1] c_com_2[2] c_com_2[3] c_vel_1[1] c_vel_1[2] c_vel_1[3] c_vel_2[1] c_vel_2[2] c_vel_2[3] c_q_1[1] c_q_1[2] c_q_1[3] c_q_1[4] c_q_2[1] c_q_2[2] c_q_2[3] c_q_2[4] c_av_1[1] c_av_1[2] c_av_1[3] c_av_2[1] c_av_2[2] c_av_2[3] c_am_1[1] c_am_1[2] c_am_1[3] c_am_2[1] c_am_2[2] c_am_2[3] 
0.906577 1.14587 -0.492289 -2.02682 3.40665 5.29567 -0.0739342 0.0498255 -0.0408264 -0.256137 0.149804 0.0761778 -0.592106 -0.418075 0.179051 0.665255 0.395255 -0.0644646 -0.708582 0.580973 -0.00589627 0.0404122 -0.106622 0.156509 -0.322716 0.0420984 -0.100037 0.18963 -0.325307 0.378205 -1.02105 0.223971 
ITEM: TIMESTEP
37000
ITEM: NUMBER OF ENTRIES
1
ITEM: BOX BOUNDS ff ff ff
-25 26
-25 26
-25 27
ITEM: ENTRIES c_com_1[1] c_com_1[2] c_com_1[3] c_com_2[1] c_com_2[2] c_com_2[3] c_vel_1[1] c_vel_1[2] c_vel_1[3] c_vel_2[1] c_vel_2[2] c_vel_2[3] c_q_1[1] c_q_1[2] c_q_1[3] c_q_1[4] c_q_2[1] c_q_2[2] c_q_2[3] c_q_2[4] c_av_1[1] c_av_1[2] c_av_1[3] c_av_2[1] c_av_2[2] c_av_2[3] c_am_1[1] c_am_1[2] c_am_1[3] c_am_2[1] c_am_2[2] c_am_2[3] 
0.84852 1.15754 -0.516748 -2.1478 3.46859 5.3349 -0.142399 0.045448 -0.0322043 -0.203021 0.0959041 0.075204 -0.599056 -0.400951 0.167313 0.672589 0.468382 -0.0664326 -0.674488 0.566808 0.0213832 0.0465556 -0.112428 0.165132 -0.230893 0.044397 0.0200621 0.179694 -0.339622 0.474909 -0.705465 0.149195 
ITEM: TIMESTEP
38000
ITEM: NUMBER OF ENTRIES
1
ITEM: BOX BOUNDS ff ff ff
-25 26
-25 26
-25 27
ITEM: ENTRIES c_com_1[1] c_com_1[2] c_com_1[3] c_com_2[1] c_com_2[2] c_com_2[3] c_vel_1[1] c_vel_1[2] c_vel_1[3] c_vel_2[1] c_vel_2[2] c_vel_2[3] c_q_1[1] c_q_1[2] c_q_1[3] c_q_1[4] c_q_2[1] c_q_2[2] c_q_2[3] c_q_2[4] c_av_1[1] c_av_1[2] c_av_1[3] c_av_2[1] c_av_2[2] c_av_2[3] c_am_1[1] c_am_1[2] c_am_1[3] c_am_2[1] c_am_2[2] c_am_2[3] 
0.771473 1.18524 -0.542039 -2.25769 3.52 5.37678 -0.163842 0.0957074 -0.0323998 -0.267265 0.107757 0.0852361 -0.60313 -0.373954 0.148026 0.688825 0.533941 -0.0620682 -0.637726 0.551689 0.0572285 0.0706175 -0.155515 0.179258 -0.238544 0.074496 0.146131 0.238382 -0.466812 0.495628 -0.744309 0.247223 
ITEM: TIMESTEP
39000
ITEM: NUMBER OF ENTRIES
1
ITEM: BOX BOUNDS ff ff ff
-25 26
-25 26
-25 27
ITEM: ENTRIES c_com_1[1] c_com_1[2] c_com_1[3] c_com_2[1] c_com_2[2] c_com_2[3] c_vel_1[1] c_vel_1[2] c_vel_1[3] c_vel_2[1] c_vel_2[2] c_vel_2[3] c_q_1[1] c_q_1[2] c_q_1[3] c_q_1[4] c_q_2[1] c_q_2[2] c_q_2[3] c_q_2[4] c_av_1[1] c_av_1[2] c_av_1[3] c_av_2[1] c_av_2[2] c_av_2[3] c_am_1[1] c_am_1[2] c_am_1[3] c_am_2[1] c_am_2[2] c_am_2[3] 
0.697569 1.22961 -0.53882 -2.37092 3.55545 5.40189 -0.163392 0.115341 0.0369682 -0.204844 0.0344619 0.0108514 -0.608778 -0.353481 0.14202 0.695896 0.599518 -0.0452604 -0.589385 0.539587 -0.0619116 0.0387414 -0.101091 0.19876 -0.241182 0.0918487 -0.32377 0.271283 -0.30143 0.554461 -0.756405 0.290881 
ITEM: TIMESTEP
40000
ITEM: NUMBER OF ENTRIES
1
ITEM: BOX BOUNDS ff ff ff
-25 26